                         Program Version 4.2.1 -  RELEASE  -
|  1> # avogadro generated ORCA input file
|  2> # Basic Mode
|  3> #
|  4> ! wB97X-D3 OPT def2-TZVP def2/J CPCM
|  5> %cpcm
|  6>   epsilon 3
|  7> end
|  8> %pal
|  9>  nprocs 4
| 10> end
| 11>
| 12>
| 13> * xyz 0 1
| 14>    O        1.07761        0.08434       -0.05997
| 15>    C        2.29872        0.07603       -0.05991
| 16>    O        2.97164        1.25472       -0.05939
| 17>    C        4.32723        1.32177       -0.05928
| 18>    O        4.87212        2.41460       -0.05882
| 19>    C        5.13076        0.07271       -0.05971
| 20>    C        6.53432        0.10057       -0.05958
| 21>    C        7.26556       -1.09014       -0.06000
| 22>    C        6.60589       -2.32934       -0.06057
| 23>    C        5.19770       -2.37011       -0.06071
| 24>    C        4.52442       -3.60759       -0.06128
| 25>    C        3.12086       -3.63545       -0.06141
| 26>    C        2.38962       -2.44474       -0.06096
| 27>    C        3.04929       -1.20554       -0.06039
| 28>    C        4.45748       -1.16477       -0.06027
| 29>    C        5.32795       -4.85665       -0.06174
| 30>    O        4.78306       -5.94948       -0.06226
| 31>    O        6.68354       -4.78960       -0.06159
| 32>    C        7.35646       -3.61091       -0.06104
| 33>    O        8.57757       -3.61922       -0.06093
| 34>    H        7.06697        1.04333       -0.05915
| 35>    H        8.34729       -1.04149       -0.05988
| 36>    H        2.58821       -4.57821       -0.06185
| 37>    H        1.30789       -2.49339       -0.06107
| 38> *
| 39>
| 40>
| 41>                          ****END OF INPUT****
 Total Charge           Charge          ....    0
 Multiplicity           Mult            ....    1
 Number of Electrons    NEL             ....  136
Dispersion correction           -0.010632747
FINAL SINGLE POINT ENERGY      -987.402682795191
Dispersion correction            ... done
Dispersion correction           -0.010669193
FINAL SINGLE POINT ENERGY      -987.413386703730
Dispersion correction            ... done
Dispersion correction           -0.010672237
FINAL SINGLE POINT ENERGY      -987.415798159396
Dispersion correction            ... done
FINAL SINGLE POINT ENERGY      -987.416000708155
FINAL SINGLE POINT ENERGY      -987.416028669836
Dispersion correction            ... done
Dispersion correction           -0.010660578
FINAL SINGLE POINT ENERGY      -987.416025520187
Dispersion correction            ... done
Dispersion correction           -0.010661051
FINAL SINGLE POINT ENERGY      -987.416031209696
Dispersion correction            ... done
                    ***********************HURRAY********************

CARTESIAN COORDINATES (ANGSTROEM)
---------------------------------
  O      1.094091    0.114920   -0.060761
  C      2.283836    0.036753   -0.060292
  O      3.000918    1.206934   -0.059380
  C      4.368745    1.316877   -0.059005
  O      4.837479    2.413366   -0.057562
  C      5.147204    0.059906   -0.060029
  C      6.517436    0.094612   -0.060037
  C      7.252656   -1.102430   -0.060327
  C      6.601905   -2.308752   -0.060476
  C      5.194782   -2.365288   -0.060609
  C      4.507977   -3.594785   -0.060999
  C      3.137745   -3.629492   -0.061004
  C      2.402526   -2.432449   -0.060692
  C      3.053277   -1.226127   -0.060539
  C      4.460399   -1.169591   -0.060415
  C      5.286433   -4.851756   -0.062004
  O      4.817697   -5.948245   -0.063614
  O      6.654260   -4.741815   -0.061518
  C      7.371343   -3.571634   -0.060624
  O      8.561087   -3.649804   -0.059820
  H      7.029159    1.047772   -0.059790
  H      8.334412   -1.077502   -0.060451
  H      2.626021   -4.582651   -0.061265
  H      1.320770   -2.457377   -0.060549

 Multiplicity           Mult            ....    1
 Number of Electrons    NEL             ....  136
 Basis Dimension        Dim             ....  644

ORBITAL ENERGIES
----------------

  NO   OCC          E(Eh)            E(eV)
   0   2.0000     -19.326759      -525.9078
   1   2.0000     -19.326754      -525.9077
   2   2.0000     -19.258862      -524.0603
   3   2.0000     -19.258861      -524.0603
   4   2.0000     -19.258753      -524.0573
   5   2.0000     -19.258752      -524.0573
   6   2.0000     -10.453577      -284.4563
   7   2.0000     -10.453577      -284.4563
   8   2.0000     -10.453486      -284.4538
   9   2.0000     -10.453485      -284.4538
  10   2.0000     -10.345185      -281.5068
  11   2.0000     -10.344696      -281.4935
  12   2.0000     -10.342804      -281.4420
  13   2.0000     -10.342784      -281.4415
  14   2.0000     -10.342697      -281.4391
  15   2.0000     -10.342687      -281.4388
  16   2.0000     -10.332126      -281.1515
  17   2.0000     -10.332118      -281.1512
  18   2.0000     -10.331560      -281.1360
  19   2.0000     -10.331560      -281.1360
  20   2.0000      -1.284244       -34.9461
  21   2.0000      -1.284127       -34.9429
  22   2.0000      -1.217565       -33.1316
  23   2.0000      -1.217479       -33.1293
  24   2.0000      -1.169733       -31.8300
  25   2.0000      -1.169695       -31.8290
  26   2.0000      -1.065508       -28.9939
  27   2.0000      -1.004379       -27.3305
  28   2.0000      -0.976239       -26.5648
  29   2.0000      -0.920073       -25.0365
  30   2.0000      -0.915465       -24.9111
  31   2.0000      -0.854102       -23.2413
  32   2.0000      -0.833380       -22.6774
  33   2.0000      -0.825818       -22.4716
  34   2.0000      -0.786050       -21.3895
  35   2.0000      -0.784123       -21.3371
  36   2.0000      -0.723819       -19.6961
  37   2.0000      -0.718242       -19.5444
  38   2.0000      -0.684767       -18.6335
  39   2.0000      -0.662319       -18.0226
  40   2.0000      -0.639701       -17.4072
  41   2.0000      -0.632874       -17.2214
  42   2.0000      -0.626654       -17.0521
  43   2.0000      -0.622671       -16.9437
  44   2.0000      -0.607345       -16.5267
  45   2.0000      -0.594407       -16.1746
  46   2.0000      -0.589992       -16.0545
  47   2.0000      -0.576507       -15.6875
  48   2.0000      -0.573034       -15.5931
  49   2.0000      -0.568936       -15.4815
  50   2.0000      -0.552854       -15.0439
  51   2.0000      -0.548435       -14.9237
  52   2.0000      -0.547373       -14.8948
  53   2.0000      -0.543989       -14.8027
  54   2.0000      -0.535195       -14.5634
  55   2.0000      -0.511752       -13.9255
  56   2.0000      -0.487921       -13.2770
  57   2.0000      -0.480431       -13.0732
  58   2.0000      -0.471393       -12.8272
  59   2.0000      -0.455680       -12.3997
  60   2.0000      -0.449333       -12.2270
  61   2.0000      -0.440756       -11.9936
  62   2.0000      -0.429794       -11.6953
  63   2.0000      -0.425013       -11.5652
  64   2.0000      -0.413425       -11.2499
  65   2.0000      -0.406887       -11.0720
  66   2.0000      -0.379746       -10.3334
  67   2.0000      -0.355418        -9.6714
  68   0.0000      -0.076306        -2.0764
  69   0.0000      -0.013047        -0.3550
  70   0.0000       0.009164         0.2494
  71   0.0000       0.029513         0.8031
  72   0.0000       0.080439         2.1888

MULLIKEN ATOMIC CHARGES
-----------------------
   0 O :   -0.309700
   1 C :    0.384349
   2 O :   -0.185623
   3 C :    0.391847
   4 O :   -0.316861
   5 C :   -0.008940
   6 C :   -0.127130
   7 C :   -0.137628
   8 C :    0.003218
   9 C :   -0.063932
  10 C :   -0.008948
  11 C :   -0.127140
  12 C :   -0.137616
  13 C :    0.003206
  14 C :   -0.063948
  15 C :    0.391854
  16 O :   -0.316860
  17 O :   -0.185622
  18 C :    0.384348
  19 O :   -0.309697
  20 H :    0.185380
  21 H :    0.185030
  22 H :    0.185380
  23 H :    0.185032
Sum of atomic charges:   -0.0000000

LOEWDIN ATOMIC CHARGES
----------------------
   0 O :    0.147501
   1 C :   -0.380790
   2 O :    0.345410
   3 C :   -0.380522
   4 O :    0.146637
   5 C :   -0.071328
   6 C :   -0.033057
   7 C :   -0.033353
   8 C :   -0.071250
   9 C :   -0.014185
  10 C :   -0.071334
  11 C :   -0.033054
  12 C :   -0.033354
  13 C :   -0.071243
  14 C :   -0.014180
  15 C :   -0.380528
  16 O :    0.146638
  17 O :    0.345410
  18 C :   -0.380796
  19 O :    0.147503
  20 H :    0.172667
  21 H :    0.172271
  22 H :    0.172667
  23 H :    0.172271

  Mayer bond orders larger than 0.100000
B(  0-O ,  1-C ) :   2.1133 B(  1-C ,  2-O ) :   1.1223 B(  1-C , 13-C ) :   0.9568
B(  2-O ,  3-C ) :   1.1256 B(  3-C ,  4-O ) :   2.1047 B(  3-C ,  5-C ) :   0.9572
B(  5-C ,  6-C ) :   1.4803 B(  5-C , 14-C ) :   1.2329 B(  6-C ,  7-C ) :   1.2305
B(  6-C , 20-H ) :   0.9702 B(  7-C ,  8-C ) :   1.4693 B(  7-C , 21-H ) :   0.9741
B(  8-C ,  9-C ) :   1.2375 B(  8-C , 18-C ) :   0.9568 B(  9-C , 10-C ) :   1.2329
B(  9-C , 14-C ) :   1.4208 B( 10-C , 11-C ) :   1.4803 B( 10-C , 15-C ) :   0.9572
B( 11-C , 12-C ) :   1.2305 B( 11-C , 22-H ) :   0.9702 B( 12-C , 13-C ) :   1.4693
B( 12-C , 23-H ) :   0.9741 B( 13-C , 14-C ) :   1.2375 B( 15-C , 16-O ) :   2.1047
B( 15-C , 17-O ) :   1.1255 B( 17-O , 18-C ) :   1.1223 B( 18-C , 19-O ) :   2.1133

Dispersion correction           -0.010660985
FINAL SINGLE POINT ENERGY      -987.416031366918

DIPOLE MOMENT
-------------
                                X             Y             Z
Electronic contribution:     -0.00004       0.00006      -0.00007
Nuclear contribution   :      0.00000       0.00000      -0.00012
                        -----------------------------------------
Total Dipole Moment    :     -0.00004       0.00006      -0.00018
                        -----------------------------------------
Magnitude (a.u.)       :      0.00020
Magnitude (Debye)      :      0.00050

Rotational constants in cm-1:     0.021656     0.009746     0.006721
Rotational constants in MHz :   649.218053   292.167298   201.490597

                             ****ORCA TERMINATED NORMALLY****
TOTAL RUN TIME: 0 days 5 hours 52 minutes 19 seconds 946 msec
