                         Program Version 4.2.1 -  RELEASE  -
|  1> # avogadro generated ORCA input file
|  2> # Basic Mode
|  3> #
|  4> ! wB97X-D3 OPT def2-TZVP def2/J CPCM
|  5> %cpcm
|  6>   epsilon 3
|  7> end
|  8> %pal
|  9>  nprocs 4
| 10> end
| 11>
| 12> * xyz 0 1
| 13>    N        1.31033        0.02579       -0.05722
| 14>    C        2.46683        0.03909       -0.06048
| 15>    C        3.89657        0.05994       -0.06514
| 16>    N        4.53027       -1.13107       -0.06869
| 17>    C        5.88282       -1.18397       -0.07362
| 18>    C        6.52168       -2.41681       -0.07612
| 19>    N        5.79786       -3.56256       -0.07309
| 20>    C        6.42411       -4.76039       -0.07530
| 21>    C        5.60495       -5.92969       -0.07022
| 22>    N        4.94989       -6.88276       -0.06613
| 23>    C        7.81736       -4.82288       -0.07948
| 24>    C        8.52954       -6.05981       -0.08073
| 25>    N        9.09897       -7.06621       -0.08171
| 26>    N        8.54768       -3.68655       -0.08283
| 27>    C        7.92898       -2.48110       -0.08186
| 28>    C        8.67697       -1.31210       -0.08554
| 29>    N       10.02862       -1.38357       -0.09144
| 30>    C       10.76913       -0.25612       -0.09587
| 31>    C       12.19069       -0.40842       -0.10233
| 32>    N       13.34120       -0.52807       -0.10755
| 33>    C       10.14294        0.99091       -0.09429
| 34>    C       10.89066        2.20839       -0.10075
| 35>    N       11.51827        3.17982       -0.10607
| 36>    N        8.78920        1.07748       -0.08752
| 37>    C        8.03478       -0.05166       -0.08299
| 38>    C        6.63782        0.01231       -0.07629
| 39>    N        5.99053        1.20591       -0.07219
| 40>    C        4.63478        1.24424       -0.06623
| 41>    C        4.00279        2.52572       -0.05990
| 42>    N        3.46834        3.55139       -0.05471
| 43> *
| 44>
| 45>
| 46>                          ****END OF INPUT****
 Total Charge           Charge          ....    0
 Multiplicity           Mult            ....    1
 Number of Electrons    NEL             ....  192
Dispersion correction           -0.014879050
FINAL SINGLE POINT ENERGY     -1342.834025954026
Dispersion correction            ... done
Dispersion correction           -0.014979829
FINAL SINGLE POINT ENERGY     -1342.859829488936
Dispersion correction            ... done
Dispersion correction           -0.014974687
FINAL SINGLE POINT ENERGY     -1342.862980195774
Dispersion correction            ... done
FINAL SINGLE POINT ENERGY     -1342.863358016230
FINAL SINGLE POINT ENERGY     -1342.863398691316
Dispersion correction            ... done
Dispersion correction           -0.014968152
FINAL SINGLE POINT ENERGY     -1342.863400089649
Dispersion correction            ... done
Dispersion correction           -0.014971153
FINAL SINGLE POINT ENERGY     -1342.863395856841
Dispersion correction            ... done
                    ***********************HURRAY********************

CARTESIAN COORDINATES (ANGSTROEM)
---------------------------------
  N      1.362890    0.132648   -0.048734
  C      2.507791    0.080540   -0.055212
  C      3.948026    0.035597   -0.064074
  N      4.522628   -1.145305   -0.059150
  C      5.851364   -1.176111   -0.066274
  C      6.524531   -2.475453   -0.068454
  N      5.784162   -3.579367   -0.054944
  C      6.418290   -4.729660   -0.062954
  C      5.623407   -5.931545   -0.045126
  N      4.999287   -6.892717   -0.031057
  C      7.824952   -4.793744   -0.088528
  C      8.506062   -6.063442   -0.107077
  N      9.034856   -7.080200   -0.121743
  N      8.560630   -3.705693   -0.098294
  C      7.923149   -2.539241   -0.086405
  C      8.711460   -1.306341   -0.089997
  N     10.037597   -1.395569   -0.100598
  C     10.717478   -0.272100   -0.097654
  C     12.155717   -0.357471   -0.111972
  N     13.300729   -0.406113   -0.123170
  C     10.069862    0.979084   -0.081571
  C     10.833344    2.201073   -0.073363
  N     11.466865    3.156183   -0.067083
  N      8.760047    1.072133   -0.074414
  C      8.067725   -0.062844   -0.079869
  C      6.605928    0.003680   -0.074899
  N      6.019890    1.196928   -0.081069
  C      4.706933    1.222319   -0.077141
  C      4.058661    2.509094   -0.088308
  N      3.520299    3.520885   -0.097158

 Multiplicity           Mult            ....    1
 Number of Electrons    NEL             ....  192
 Basis Dimension        Dim             ....  930

ORBITAL ENERGIES
----------------

  NO   OCC          E(Eh)            E(eV)
   0   2.0000     -14.511820      -394.8867
   1   2.0000     -14.511792      -394.8859
   2   2.0000     -14.511735      -394.8844
   3   2.0000     -14.511723      -394.8841
   4   2.0000     -14.511707      -394.8836
   5   2.0000     -14.511690      -394.8832
   6   2.0000     -14.469522      -393.7357
   7   2.0000     -14.469441      -393.7335
   8   2.0000     -14.469413      -393.7328
   9   2.0000     -14.469410      -393.7327
  10   2.0000     -14.469344      -393.7309
  11   2.0000     -14.469343      -393.7309
  12   2.0000     -10.427859      -283.7565
  13   2.0000     -10.427807      -283.7551
  14   2.0000     -10.427707      -283.7523
  15   2.0000     -10.427371      -283.7432
  16   2.0000     -10.427274      -283.7406
  17   2.0000     -10.427195      -283.7384
  18   2.0000     -10.406343      -283.1710
  19   2.0000     -10.406222      -283.1677
  20   2.0000     -10.406066      -283.1634
  21   2.0000     -10.405728      -283.1543
  22   2.0000     -10.405609      -283.1510
  23   2.0000     -10.405437      -283.1463
  24   2.0000     -10.361417      -281.9485
  25   2.0000     -10.361359      -281.9469
  26   2.0000     -10.361193      -281.9424
  27   2.0000     -10.361180      -281.9421
  28   2.0000     -10.361165      -281.9416
  29   2.0000     -10.361105      -281.9400
  30   2.0000      -1.206715       -32.8364
  31   2.0000      -1.190541       -32.3963
  32   2.0000      -1.190476       -32.3945
  33   2.0000      -1.123458       -30.5708
  34   2.0000      -1.123366       -30.5684
  35   2.0000      -1.107521       -30.1372
  36   2.0000      -1.081299       -29.4236
  37   2.0000      -1.075639       -29.2696
  38   2.0000      -1.075538       -29.2669
  39   2.0000      -1.068841       -29.0846
  40   2.0000      -1.068830       -29.0843
  41   2.0000      -1.067147       -29.0385
  42   2.0000      -1.040394       -28.3106
  43   2.0000      -0.984763       -26.7968
  44   2.0000      -0.984737       -26.7961
  45   2.0000      -0.918642       -24.9975
  46   2.0000      -0.902790       -24.5662
  47   2.0000      -0.902668       -24.5628
  48   2.0000      -0.852505       -23.1978
  49   2.0000      -0.839830       -22.8529
  50   2.0000      -0.839776       -22.8515
  51   2.0000      -0.771785       -21.0013
  52   2.0000      -0.757501       -20.6126
  53   2.0000      -0.757416       -20.6103
  54   2.0000      -0.747203       -20.3324
  55   2.0000      -0.720126       -19.5956
  56   2.0000      -0.719905       -19.5896
  57   2.0000      -0.697062       -18.9680
  58   2.0000      -0.696870       -18.9628
  59   2.0000      -0.675363       -18.3776
  60   2.0000      -0.652051       -17.7432
  61   2.0000      -0.647019       -17.6063
  62   2.0000      -0.621645       -16.9158
  63   2.0000      -0.621598       -16.9145
  64   2.0000      -0.599779       -16.3208
  65   2.0000      -0.599528       -16.3140
  66   2.0000      -0.546217       -14.8633
  67   2.0000      -0.538315       -14.6483
  68   2.0000      -0.538276       -14.6472
  69   2.0000      -0.523109       -14.2345
  70   2.0000      -0.518151       -14.0996
  71   2.0000      -0.518114       -14.0986
  72   2.0000      -0.516838       -14.0639
  73   2.0000      -0.514764       -14.0074
  74   2.0000      -0.514147       -13.9906
  75   2.0000      -0.514135       -13.9903
  76   2.0000      -0.506690       -13.7877
  77   2.0000      -0.506649       -13.7866
  78   2.0000      -0.500742       -13.6259
  79   2.0000      -0.500721       -13.6253
  80   2.0000      -0.498425       -13.5628
  81   2.0000      -0.496385       -13.5073
  82   2.0000      -0.496251       -13.5037
  83   2.0000      -0.489130       -13.3099
  84   2.0000      -0.476726       -12.9724
  85   2.0000      -0.476652       -12.9704
  86   2.0000      -0.474431       -12.9099
  87   2.0000      -0.474398       -12.9090
  88   2.0000      -0.462760       -12.5923
  89   2.0000      -0.459506       -12.5038
  90   2.0000      -0.446897       -12.1607
  91   2.0000      -0.426396       -11.6028
  92   2.0000      -0.422917       -11.5082
  93   2.0000      -0.422836       -11.5060
  94   2.0000      -0.393485       -10.7073
  95   2.0000      -0.393350       -10.7036
  96   0.0000      -0.089859        -2.4452
  97   0.0000      -0.089798        -2.4435
  98   0.0000      -0.084648        -2.3034
  99   0.0000      -0.023097        -0.6285
 100   0.0000      -0.021663        -0.5895

MULLIKEN ATOMIC CHARGES
-----------------------
   0 N :   -0.004914
   1 C :   -0.262959
   2 C :    0.339584
   3 N :   -0.253614
   4 C :    0.181723
   5 C :    0.185533
   6 N :   -0.257440
   7 C :    0.338800
   8 C :   -0.258536
   9 N :   -0.006727
  10 C :    0.330874
  11 C :   -0.249916
  12 N :   -0.008504
  13 N :   -0.257385
  14 C :    0.188884
  15 C :    0.175214
  16 N :   -0.251408
  17 C :    0.341205
  18 C :   -0.264784
  19 N :   -0.004682
  20 C :    0.325947
  21 C :   -0.254846
  22 N :   -0.006385
  23 N :   -0.251770
  24 C :    0.189345
  25 C :    0.182320
  26 N :   -0.254182
  27 C :    0.324472
  28 C :   -0.247978
  29 N :   -0.007868
Sum of atomic charges:   -0.0000000

LOEWDIN ATOMIC CHARGES
----------------------
   0 N :    0.101646
   1 C :   -0.114720
   2 C :   -0.153380
   3 N :    0.275176
   4 C :   -0.108574
   5 C :   -0.108345
   6 N :    0.274920
   7 C :   -0.153670
   8 C :   -0.114710
   9 N :    0.101642
  10 C :   -0.153614
  11 C :   -0.114325
  12 N :    0.101491
  13 N :    0.274879
  14 C :   -0.108512
  15 C :   -0.108632
  16 N :    0.275245
  17 C :   -0.153416
  18 C :   -0.114761
  19 N :    0.101711
  20 C :   -0.153822
  21 C :   -0.114643
  22 N :    0.101868
  23 N :    0.275024
  24 C :   -0.108445
  25 C :   -0.108315
  26 N :    0.274962
  27 C :   -0.153829
  28 C :   -0.114382
  29 N :    0.101532

  Mayer bond orders larger than 0.100000
B(  0-N ,  1-C ) :   2.9845 B(  1-C ,  2-C ) :   1.0067 B(  2-C ,  3-N ) :   1.4818
B(  2-C , 27-C ) :   1.2963 B(  3-N ,  4-C ) :   1.4810 B(  3-N ,  5-C ) :  -0.1189
B(  4-C ,  5-C ) :   1.0296 B(  4-C ,  6-N ) :  -0.1174 B(  4-C , 25-C ) :   1.3312
B(  5-C ,  6-N ) :   1.4818 B(  5-C , 14-C ) :   1.3298 B(  6-N ,  7-C ) :   1.4833
B(  7-C ,  8-C ) :   1.0069 B(  7-C , 10-C ) :   1.2962 B(  8-C ,  9-N ) :   2.9847
B( 10-C , 11-C ) :   1.0069 B( 10-C , 13-N ) :   1.4843 B( 11-C , 12-N ) :   2.9849
B( 13-N , 14-C ) :   1.4793 B( 13-N , 15-C ) :  -0.1160 B( 14-C , 15-C ) :   1.0310
B( 14-C , 16-N ) :  -0.1156 B( 15-C , 16-N ) :   1.4796 B( 15-C , 24-C ) :   1.3299
B( 16-N , 17-C ) :   1.4838 B( 17-C , 18-C ) :   1.0067 B( 17-C , 20-C ) :   1.2956
B( 18-C , 19-N ) :   2.9842 B( 20-C , 21-C ) :   1.0108 B( 20-C , 23-N ) :   1.4875
B( 21-C , 22-N ) :   2.9832 B( 23-N , 24-C ) :   1.4813 B( 23-N , 25-C ) :  -0.1213
B( 24-C , 25-C ) :   1.0287 B( 24-C , 26-N ) :  -0.1198 B( 25-C , 26-N ) :   1.4786
B( 26-N , 27-C ) :   1.4863 B( 27-C , 28-C ) :   1.0090 B( 28-C , 29-N ) :   2.9846

Dispersion correction           -0.014972479
FINAL SINGLE POINT ENERGY     -1342.863393968520

DIPOLE MOMENT
-------------
                                X             Y             Z
Electronic contribution:      0.00257       0.00834       0.00758
Nuclear contribution   :      0.00000      -0.00003      -0.00004
                        -----------------------------------------
Total Dipole Moment    :      0.00257       0.00832       0.00754
                        -----------------------------------------
Magnitude (a.u.)       :      0.01152
Magnitude (Debye)      :      0.02928

Rotational constants in cm-1:     0.005124     0.005110     0.002559
Rotational constants in MHz :   153.626367   153.181874    76.704628

                             ****ORCA TERMINATED NORMALLY****
TOTAL RUN TIME: 0 days 14 hours 17 minutes 41 seconds 27 msec
