                         Program Version 4.2.1 -  RELEASE  -
                         Program Version 4.2.1 -  RELEASE  -
|  1> # avogadro generated ORCA input file
|  2> # Basic Mode
|  3> #
|  4> ! wB97X-D3 OPT def2-TZVP def2/J CPCM
|  5> %cpcm
|  6>   epsilon 3
|  7> end
|  8> %pal
|  9>  nprocs 4
| 10> end
| 11>
| 12> * xyz 0 1
| 13>    C       -9.85459        4.82825       -0.54038
| 14>    C       -9.36947        3.49263       -0.41017
| 15>    N      -10.89088        5.40376       -0.60360
| 16>    N       -9.79604        2.38942       -0.30974
| 17>    H       -8.65805        4.50458       -0.49954
| 18>    H       -7.82875        4.80373       -0.52064
| 19>    H       -7.52552        5.73248       -0.60567
| 20>    H       -6.99926        4.28360       -0.46442
| 21>    F       -8.38102        6.47333       -0.68293
| 22>    F       -7.18071        3.16869       -0.36078
| 23>    H       -6.72705        6.02052       -0.62598
| 24>    H       -6.20079        4.57164       -0.48473
| 25>    H       -5.89756        5.50039       -0.56976
| 26>    F       -6.54559        7.13543       -0.72962
| 27>    F       -5.34529        3.83080       -0.40747
| 28>    H       -5.06826        5.79955       -0.59086
| 29>    C       -4.35684        6.81149       -0.68023
| 30>    C       -3.87172        5.47588       -0.55002
| 31>    N       -3.93029        7.91471       -0.78066
| 32>    N       -2.83541        4.90038       -0.48680
| 33> *
| 34>
| 35>
| 36>                          ****END OF INPUT****
 Total Charge           Charge          ....    0
 Multiplicity           Mult            ....    1
 Number of Electrons    NEL             ....   96
 Basis Dimension        Dim             ....  420

ORBITAL ENERGIES
----------------

  NO   OCC          E(Eh)            E(eV)
   0   2.0000     -24.747797      -673.4218
   1   2.0000     -24.747723      -673.4198
   2   2.0000     -24.747554      -673.4152
   3   2.0000     -24.747486      -673.4133
   4   2.0000     -14.521760      -395.1572
   5   2.0000     -14.521723      -395.1562
   6   2.0000     -14.521650      -395.1542
   7   2.0000     -14.521609      -395.1531
   8   2.0000     -10.431317      -283.8506
   9   2.0000     -10.431300      -283.8501
  10   2.0000     -10.430874      -283.8385
  11   2.0000     -10.430857      -283.8381
  12   2.0000      -1.324755       -36.0484
  13   2.0000      -1.311804       -35.6960
  14   2.0000      -1.253060       -34.0975
  15   2.0000      -1.245365       -33.8881
  16   2.0000      -1.136399       -30.9230
  17   2.0000      -1.134801       -30.8795
  18   2.0000      -1.079245       -29.3677
  19   2.0000      -1.078841       -29.3568
  20   2.0000      -0.988650       -26.9025
  21   2.0000      -0.981578       -26.7101
  22   2.0000      -0.866035       -23.5660
  23   2.0000      -0.708389       -19.2763
  24   2.0000      -0.702307       -19.1107
  25   2.0000      -0.669724       -18.2241
  26   2.0000      -0.601371       -16.3641
  27   2.0000      -0.591262       -16.0890
  28   2.0000      -0.581541       -15.8245
  29   2.0000      -0.580105       -15.7855
  30   2.0000      -0.575939       -15.6721
  31   2.0000      -0.553661       -15.0659
  32   2.0000      -0.553338       -15.0571
  33   2.0000      -0.549340       -14.9483
  34   2.0000      -0.547270       -14.8920
  35   2.0000      -0.527851       -14.3636
  36   2.0000      -0.525183       -14.2910
  37   2.0000      -0.520820       -14.1722
  38   2.0000      -0.503497       -13.7008
  39   2.0000      -0.492863       -13.4115
  40   2.0000      -0.484602       -13.1867
  41   2.0000      -0.474661       -12.9162
  42   2.0000      -0.468999       -12.7621
  43   2.0000      -0.448774       -12.2118
  44   2.0000      -0.439677       -11.9642
  45   2.0000      -0.418409       -11.3855
  46   2.0000      -0.401241       -10.9183
  47   2.0000      -0.390467       -10.6251
  48   0.0000      -0.128729        -3.5029
  49   0.0000      -0.049200        -1.3388
  50   0.0000      -0.049032        -1.3342
  51   0.0000      -0.048830        -1.3287
  52   0.0000      -0.039282        -1.0689

MULLIKEN ATOMIC CHARGES
-----------------------
   0 C :   -0.035473
   1 C :   -0.026998
   2 N :    0.008410
   3 N :    0.006290
   4 H :    0.545686
   5 H :   -0.340946
   6 H :    0.318503
   7 H :    0.312566
   8 F :   -0.394353
   9 F :   -0.393446
  10 H :    0.313247
  11 H :    0.319150
  12 H :   -0.343691
  13 F :   -0.393368
  14 F :   -0.394262
  15 H :    0.546076
  16 C :   -0.026861
  17 C :   -0.035343
  18 N :    0.006354
  19 N :    0.008461
Sum of atomic charges:   -0.0000000

LOEWDIN ATOMIC CHARGES
----------------------
   0 C :   -0.210088
   1 C :   -0.209755
   2 N :    0.207231
   3 N :    0.207232
   4 H :    0.192281
   5 H :    0.094852
   6 H :    0.129349
   7 H :    0.128990
   8 F :   -0.269854
   9 F :   -0.269979
  10 H :    0.128933
  11 H :    0.129279
  12 H :    0.094527
  13 F :   -0.269983
  14 F :   -0.269853
  15 H :    0.192177
  16 C :   -0.209815
  17 C :   -0.210141
  18 N :    0.207309
  19 N :    0.207307

  Mayer bond orders larger than 0.100000
B(  0-C ,  1-C ) :   0.9508 B(  0-C ,  2-N ) :   2.7332 B(  0-C ,  4-H ) :   0.1757
B(  0-C ,  8-F ) :   0.1507 B(  1-C ,  3-N ) :   2.7322 B(  1-C ,  4-H ) :   0.1703
B(  1-C ,  9-F ) :   0.1494 B(  2-N ,  3-N ) :   0.1200 B(  4-H ,  5-H ) :   0.2379
B(  5-H ,  6-H ) :   0.2305 B(  5-H ,  7-H ) :   0.2362 B(  6-H ,  8-F ) :   0.5399
B(  6-H , 10-H ) :   0.1392 B(  7-H ,  9-F ) :   0.5394 B(  7-H , 11-H ) :   0.1392
B( 10-H , 12-H ) :   0.2357 B( 10-H , 13-F ) :   0.5396 B( 11-H , 12-H ) :   0.2301
B( 11-H , 14-F ) :   0.5401 B( 12-H , 15-H ) :   0.2370 B( 13-F , 16-C ) :   0.1494
B( 14-F , 17-C ) :   0.1507 B( 15-H , 16-C ) :   0.1705 B( 15-H , 17-C ) :   0.1759
B( 16-C , 17-C ) :   0.9505 B( 16-C , 18-N ) :   2.7322 B( 17-C , 19-N ) :   2.7331
B( 18-N , 19-N ) :   0.1200

Dispersion correction           -0.008671191
FINAL SINGLE POINT ENERGY      -774.618716573141
Dispersion correction            ... done
Dispersion correction           -0.008618432
FINAL SINGLE POINT ENERGY      -774.728672932396
Dispersion correction            ... done
Dispersion correction           -0.008632801
FINAL SINGLE POINT ENERGY      -774.813949722196
Dispersion correction            ... done
FINAL SINGLE POINT ENERGY      -774.887873147990
FINAL SINGLE POINT ENERGY      -774.955100843918
FINAL SINGLE POINT ENERGY      -775.018660219066
FINAL SINGLE POINT ENERGY      -775.078988877194
FINAL SINGLE POINT ENERGY      -775.135540956681
FINAL SINGLE POINT ENERGY      -775.187373496136
FINAL SINGLE POINT ENERGY      -775.234237805897
FINAL SINGLE POINT ENERGY      -775.553457822758
FINAL SINGLE POINT ENERGY      -775.553684929042
FINAL SINGLE POINT ENERGY      -775.553826556382
FINAL SINGLE POINT ENERGY      -775.554029611841
FINAL SINGLE POINT ENERGY      -775.554155304007
FINAL SINGLE POINT ENERGY      -775.554314857981
FINAL SINGLE POINT ENERGY      -775.554398435415
Dispersion correction           -0.003457948
FINAL SINGLE POINT ENERGY      -775.554501421105
Dispersion correction            ... done
Dispersion correction           -0.003527648
FINAL SINGLE POINT ENERGY      -775.554571148741
Dispersion correction            ... done

CARTESIAN COORDINATES (ANGSTROEM)
---------------------------------
  C    -12.814539    3.744255   -0.603443
  C    -12.350073    2.488139   -0.249871
  N    -13.181371    4.793008   -0.886294
  N    -11.962877    1.447709    0.036089
  H     -9.421448    4.237997   -0.475028
  H     -8.720255    4.491467   -0.491531
  H     -9.529785    6.935550   -0.653790
  H     -7.624019    2.166571   -0.335577
  F    -10.251537    7.508104   -0.680788
  F     -7.290332    1.309156   -0.283072
  H     -5.979464    8.200678   -0.715442
  H     -4.392097    3.370974   -0.396947
  H     -5.062185    5.872626   -0.563575
  F     -6.014032    9.120346   -0.767650
  F     -3.662234    2.808111   -0.390502
  H     -4.352075    6.099203   -0.587312
  C     -1.361710    7.760004   -0.854323
  C     -0.955472    6.466639   -0.576691
  N     -1.717679    8.824837   -1.086421
  N     -0.619905    5.395887   -0.341830

Dispersion correction           -0.003619123
FINAL SINGLE POINT ENERGY      -775.554569432342
Dispersion correction            ... done

DIPOLE MOMENT
-------------
                                X             Y             Z
Electronic contribution:      0.18311      -0.11112      -0.10183
Nuclear contribution   :     -0.50582       0.02545       0.11447
                        -----------------------------------------
Total Dipole Moment    :     -0.32271      -0.08567       0.01264
                        -----------------------------------------
Magnitude (a.u.)       :      0.33413
Magnitude (Debye)      :      0.84929

Rotational constants in cm-1:     0.015276     0.004079     0.003227
Rotational constants in MHz :   457.953062   122.272988    96.735478

                             ****ORCA TERMINATED NORMALLY****
TOTAL RUN TIME: 0 days 4 hours 29 minutes 21 seconds 565 msec
