                         Program Version 4.2.1 -  RELEASE  -
|  1> # avogadro generated ORCA input file
|  2> # Basic Mode
|  3> #
|  4> ! wB97X-D3 OPT def2-TZVP def2/J CPCM
|  5> %cpcm
|  6>   epsilon 3
|  7> end
|  8> %pal
|  9>  nprocs 4
| 10> end
| 11>
| 12> * xyz 0 1
| 13>    O       -1.22489        1.76735       -0.09580
| 14>    O        1.85803        2.11573       -0.10442
| 15>    O        0.61837       -0.72703       -0.01634
| 16>    W        0.41717        1.05198       -0.07344
| 17> *
| 18>
| 19>
| 20>                          ****END OF INPUT****
 Total Charge           Charge          ....    0
 Multiplicity           Mult            ....    1
 Number of Electrons    NEL             ....   38
 Basis Dimension        Dim             ....  133

ORBITAL ENERGIES
----------------

  NO   OCC          E(Eh)            E(eV)
   0   2.0000     -19.268179      -524.3138
   1   2.0000     -19.268111      -524.3120
   2   2.0000     -19.268053      -524.3104
   3   2.0000      -3.235902       -88.0534
   4   2.0000      -1.880314       -51.1659
   5   2.0000      -1.871090       -50.9150
   6   2.0000      -1.871015       -50.9129
   7   2.0000      -1.071026       -29.1441
   8   2.0000      -1.035655       -28.1816
   9   2.0000      -1.035571       -28.1793
  10   2.0000      -0.540237       -14.7006
  11   2.0000      -0.540137       -14.6979
  12   2.0000      -0.514116       -13.9898
  13   2.0000      -0.504681       -13.7331
  14   2.0000      -0.504621       -13.7314
  15   2.0000      -0.431887       -11.7523
  16   2.0000      -0.428121       -11.6498
  17   2.0000      -0.428068       -11.6483
  18   2.0000      -0.422314       -11.4918
  19   0.0000      -0.129239        -3.5168
  20   0.0000      -0.037161        -1.0112
  21   0.0000      -0.037131        -1.0104
  22   0.0000       0.084854         2.3090
  23   0.0000       0.089088         2.4242

MULLIKEN ATOMIC CHARGES
-----------------------
   0 O :   -0.567448
   1 O :   -0.567999
   2 O :   -0.567992
   3 W :    1.703439
Sum of atomic charges:   -0.0000000

LOEWDIN ATOMIC CHARGES
----------------------
   0 O :   -0.379603
   1 O :   -0.379713
   2 O :   -0.379712
   3 W :    1.139028

  Mayer bond orders larger than 0.100000
B(  0-O ,  1-O ) :   0.1059 B(  0-O ,  2-O ) :   0.1058 B(  0-O ,  3-W ) :   1.9402
B(  1-O ,  2-O ) :   0.1058 B(  1-O ,  3-W ) :   1.9395 B(  2-O ,  3-W ) :   1.9393

Dispersion correction           -0.000427771
FINAL SINGLE POINT ENERGY      -292.867322858118
Dispersion correction            ... done
Dispersion correction           -0.000391160
FINAL SINGLE POINT ENERGY      -292.877003205603
Dispersion correction            ... done
Dispersion correction           -0.000409839
FINAL SINGLE POINT ENERGY      -292.879713161334
Dispersion correction            ... done
FINAL SINGLE POINT ENERGY      -292.880042585165
FINAL SINGLE POINT ENERGY      -292.879557735993
FINAL SINGLE POINT ENERGY      -292.888060658141
FINAL SINGLE POINT ENERGY      -292.888079482768
FINAL SINGLE POINT ENERGY      -292.888083071337
FINAL SINGLE POINT ENERGY      -292.888088124658
FINAL SINGLE POINT ENERGY      -292.888088470857
FINAL SINGLE POINT ENERGY      -292.888902550184
FINAL SINGLE POINT ENERGY      -292.888910730809
FINAL SINGLE POINT ENERGY      -292.888913319910
FINAL SINGLE POINT ENERGY      -292.888913268558
FINAL SINGLE POINT ENERGY      -292.888914128389
FINAL SINGLE POINT ENERGY      -292.888914183845
FINAL SINGLE POINT ENERGY      -292.888936857353
Dispersion correction           -0.000397606
FINAL SINGLE POINT ENERGY      -292.888945181644
Dispersion correction            ... done
Dispersion correction           -0.000397578
FINAL SINGLE POINT ENERGY      -292.888945870296
Dispersion correction            ... done

CARTESIAN COORDINATES (ANGSTROEM)
---------------------------------
  O     -1.159273    1.739280   -0.034899
  O      1.797609    2.056538   -0.041632
  O      0.620424   -0.635997    0.041555
  W      0.409920    1.048210   -0.255024

Dispersion correction           -0.000397452
FINAL SINGLE POINT ENERGY      -292.888949849277
Dispersion correction            ... done

DIPOLE MOMENT
-------------
                                X             Y             Z
Electronic contribution:     -0.60721      -0.20918     -14.79884
Nuclear contribution   :      0.54822       0.15035      12.72992
                        -----------------------------------------
Total Dipole Moment    :     -0.05898      -0.05883      -2.06892
                        -----------------------------------------
Magnitude (a.u.)       :      2.07059
Magnitude (Debye)      :      5.26303

Rotational constants in cm-1:     0.234846     0.222585     0.125565
Rotational constants in MHz :  7040.510651  6672.942435  3764.358726

                             ****ORCA TERMINATED NORMALLY****
TOTAL RUN TIME: 0 days 0 hours 29 minutes 46 seconds 405 msec
