                         Program Version 4.2.1 -  RELEASE  -
|  1> # input to generate an atomic fitting density for W
|  2> # this file is use internally by ORCA
|  3> #
|  4> # atomic ground state (S=5): 1s2 2s2 2p6 3s2 3p6 4s2 3d10 4p6 5s2 4d10 5p6 6s2 4f14 5d4
|  5> #
|  6> ! RHF AllowRHF def2-SVP def2/J  NoMulliken NoLoewdin NoMayer NoPrintMOs
|  7>
|  8> %output print[p_atomdensfit] 2 end
|  9>
| 10> %scf
| 11>   guess hcore
| 12>   maxiter 1000
| 13>   maxdisk 500000
| 14>   SCFMode Conventional
| 15>   lshift 0.500000
| 16>   hftyp rohf
| 17>   rohf_case sahf
| 18>   rohf_numop   2
| 19>   rohf_norb[1] 5
| 20>   rohf_nel[1]  4
| 21> end
| 22>
| 23> %basis
| 24>   NewECP 74
| 25>     N_core 60
| 26>     lmax f
| 27>     s 3
| 28>       1      14.3228564000   1192.3958823000  2
| 29>       2       7.1614281000     32.5229332000  2
| 30>       3       2.2588885000    -14.1525795000  2
| 31>     p 3
| 32>       1      10.0216411000    359.0319671000  2
| 33>       2       5.0108204000     24.0303802000  2
| 34>       3       2.2588885000    -14.1525795000  2
| 35>     d 3
| 36>       1       6.5979974000    108.3013490000  2
| 37>       2       3.2989987000     10.9825283000  2
| 38>       3       2.2588885000    -14.1525795000  2
| 39>     f 1
| 40>       1       2.2588885000     14.1525795000  2
| 41>   end
| 42>   NewGTO 74
| 43>     s 3
| 44>      1      30.0000000000      1.1087519451
| 45>      2      27.0000000000     -1.6054504407
| 46>      3      13.0780456840      1.4681670492
| 47>     s 1
| 48>      1       4.8100449717      1.0000000000
| 49>     s 1
| 50>      1       0.9849780426      1.0000000000
| 51>     s 1
| 52>      1       0.4491048534      1.0000000000
| 53>     s 1
| 54>      1       0.1144835292      1.0000000000
| 55>     s 1
| 56>      1       0.0417204220      1.0000000000
| 57>     p 4
| 58>      1      17.0000000000     -0.0915365247
| 59>      2      12.4319734320      0.2639678450
| 60>      3       5.1586217658     -0.7116151539
| 61>      4       1.2801454812      1.2480085239
| 62>     p 1
| 63>      1       0.6285679090      1.0000000000
| 64>     p 1
| 65>      1       0.2938042355      1.0000000000
| 66>     p 1
| 67>      1       0.0650000000      1.0000000000
| 68>     d 4
| 69>      1       7.4064737315      0.0625854177
| 70>      2       5.9026268603     -0.1271042649
| 71>      3       1.2984756750      0.3967305737
| 72>      4       0.5715350854      0.6857074962
| 73>     d 1
| 74>      1       0.2384552661      1.0000000000
| 75>     d 1
| 76>      1       0.0911442673      1.0000000000
| 77>   end
| 78>   NewAuxGTO 74
| 79>     S 1
| 80>      1 1310.72 1.0
| 81>     S 1
| 82>      1  655.36 1.0
| 83>     S 1
| 84>      1  327.68 1.0
| 85>     S 1
| 86>      1  163.84 1.0
| 87>     S 1
| 88>      1   81.82 1.0
| 89>     S 1
| 90>      1   40.96 1.0
| 91>     S 1
| 92>      1   20.48 1.0
| 93>     S 1
| 94>      1   10.24 1.0
| 95>     S 1
| 96>      1    5.12 1.0
| 97>     S 1
| 98>      1    2.56 1.0
| 99>     S 1
|100>      1    1.28 1.0
|101>     S 1
|102>      1    0.64 1.0
|103>     S 1
|104>      1    0.32 1.0
|105>     S 1
|106>      1    0.16 1.0
|107>     S 1
|108>      1    0.08 1.0
|109>     S 1
|110>      1    0.04 1.0
|111>     S 1
|112>      1    0.02 1.0
|113>     S 1
|114>      1    0.01 1.0
|115>   end
|116> end
|117>
|118> * xyz 0 5
|119> 74  0.0 0.0 0.0
|120> *
|121>
|122>
|123>                          ****END OF INPUT****

CARTESIAN COORDINATES (ANGSTROEM)
---------------------------------
  W      0.000000    0.000000    0.000000

 Total Charge           Charge          ....    0
 Multiplicity           Mult            ....    5
 Number of Electrons    NEL             ....   14
 Basis Dimension        Dim             ....   33

ORBITAL ENERGIES
----------------

  NO   OCC          E(Eh)            E(eV)
   0   2.0000      -3.673328       -99.9563
   1   2.0000      -2.140581       -58.2482
   2   2.0000      -2.133056       -58.0434
   3   2.0000      -2.125656       -57.8420
   4   2.0000      -0.505825       -13.7642
   5   0.8000      -0.552678       -15.0391
   6   0.8000      -0.480587       -13.0774
   7   0.8000      -0.235884        -6.4187
   8   0.8000      -0.225852        -6.1457
   9   0.8000      -0.216060        -5.8793
  10   0.0000      -0.202331        -5.5057
  11   0.0000      -0.188392        -5.1264
  12   0.0000      -0.175107        -4.7649
  13   0.0000       0.078904         2.1471
  14   0.0000       0.164865         4.4862

CleanUpVectors: The p-vectors have cracked symmetry
CleanUpVectors: The p-vectors have cracked symmetry
CleanUpVectors: The p-vectors have cracked symmetry
CleanUpVectors: The d-vectors have cracked symmetry at i=4
CleanUpVectors: The d-vectors have cracked symmetry at i=5
CleanUpVectors: The p-vectors have cracked symmetry
CleanUpVectors: The p-vectors have cracked symmetry
CleanUpVectors: The p-vectors have cracked symmetry
CleanUpVectors: The d-vectors have cracked symmetry at i=10
CleanUpVectors: The d-vectors have cracked symmetry at i=11
CleanUpVectors: The d-vectors have cracked symmetry at i=12
CleanUpVectors: The d-vectors have cracked symmetry at i=14
CleanUpVectors: The d-vectors have cracked symmetry at i=15
CleanUpVectors: The d-vectors have cracked symmetry at i=16
CleanUpVectors: The d-vectors have cracked symmetry at i=17
CleanUpVectors: The d-vectors have cracked symmetry at i=18
CleanUpVectors: The p-vectors have cracked symmetry
CleanUpVectors: The p-vectors have cracked symmetry
CleanUpVectors: The p-vectors have cracked symmetry
CleanUpVectors: The d-vectors have cracked symmetry at i=22
CleanUpVectors: The d-vectors have cracked symmetry at i=23
CleanUpVectors: The d-vectors have cracked symmetry at i=24
CleanUpVectors: The d-vectors have cracked symmetry at i=25
CleanUpVectors: The d-vectors have cracked symmetry at i=26
CleanUpVectors: The p-vectors have cracked symmetry
CleanUpVectors: The p-vectors have cracked symmetry
CleanUpVectors: The p-vectors have cracked symmetry
--------------------------
ATOM BASIS FOR ELEMENT W
--------------------------
 NewGTO W
 S 8
    1         30.000000000000        -0.328314820541
    2         27.000000000000         0.475393234397
    3         13.078045684000        -0.434741966778
    4          4.810044971700         0.830486138444
    5          0.984978042600        -0.946603498544
    6          0.449104853400        -0.367953323823
    7          0.114483529200        -0.003217724991
    8          0.041720422000        -0.000433984958
 P 21
    1         17.000000000000        -0.001208607050
    2         12.431973432000         0.003485312551
    3          5.158621765800        -0.009395846025
    4          1.280145481200         0.016478142524
    5         17.000000000000         0.013545061839
    6         12.431973432000        -0.039060482095
    7          5.158621765800         0.105300821687
    8          1.280145481200        -0.184673305956
    9         17.000000000000        -0.034355312919
   10         12.431973432000         0.099071905398
   11          5.158621765800        -0.267082034962
   12          1.280145481200         0.468400165998
   13          0.628567909000         0.017165711180
   14          0.628567909000        -0.192379003156
   15          0.628567909000         0.487944679098
   16          0.293804235500         0.004204985704
   17          0.293804235500        -0.047125979780
   18          0.293804235500         0.119529006304
   19          0.065000000000         0.000050020977
   20          0.065000000000        -0.000560593476
   21          0.065000000000         0.001421873485
 D 21
    1         30.000000000000        -0.000063569944
    2         27.000000000000         0.000102275551
    3         13.078045684000        -0.000193095126
    4          4.810044971700         0.001056044935
    5          0.984978042600        -0.009724585796
    6          0.449104853400        -0.000104745691
    7          0.114483529200         0.093593340684
    8          0.041720422000        -0.010060663336
    9          7.406473731500        -0.022125753965
   10          5.902626860300         0.044935031138
   11          1.298475675000        -0.140255723886
   12          0.571535085400        -0.242417417838
   13          7.406473731500        -0.035234754145
   14          5.902626860300         0.071558003271
   15          1.298475675000        -0.223354013438
   16          0.571535085400        -0.386044160632
   17          7.406473731500        -0.012492250371
   18          5.902626860300         0.025370419480
   19          1.298475675000        -0.079188696645
   20          0.571535085400        -0.136869418451
   21          7.406473731500        -0.001870371038
 S 8
    1         30.000000000000        -2.130337831161
    2         27.000000000000         3.084686187016
    3         13.078045684000        -2.820912126646
    4          4.810044971700         3.110508462941
    5          0.984978042600        -1.779243222008
    6          0.449104853400         1.231914078068
    7          0.114483529200        -0.420412869920
    8          0.041720422000         0.156616595731
 S 8
    1         30.000000000000        -2.059115025004
    2         27.000000000000         2.981557001054
    3         13.078045684000        -2.726601602445
    4          4.810044971700         1.219446432024
    5          0.984978042600        -0.571864032042
    6          0.449104853400         0.390157246414
    7          0.114483529200        -0.132854718515
    8          0.041720422000         0.049568020148
 P 21
    1         17.000000000000        -0.000365985978
    2         12.431973432000         0.001055409633
    3          5.158621765800        -0.002845215819
    4          1.280145481200         0.004989851010
    5         17.000000000000         0.004101666216
    6         12.431973432000        -0.011828152702
    7          5.158621765800         0.031886810703
    8          1.280145481200        -0.055922096851
    9         17.000000000000        -0.010403350535
   10         12.431973432000         0.030000592994
   11          5.158621765800        -0.080876807554
   12          1.280145481200         0.141839229617
   13          0.628567909000         0.011201868031
   14          0.628567909000        -0.125541213098
   15          0.628567909000         0.318419193018
   16          0.293804235500        -0.008660583994
   17          0.293804235500         0.097060616835
   18          0.293804235500        -0.246181811722
   19          0.065000000000        -0.030227357596
   20          0.065000000000         0.338763064415
   21          0.065000000000        -0.859229084480
 D 21
    1          7.406473731500         0.001123222390
    2          5.902626860300        -0.002281144098
    3          1.298475675000         0.007120135643
    4          0.571535085400         0.012306413238
    5          7.406473731500        -0.008231609503
    6          5.902626860300         0.016717515250
    7          1.298475675000        -0.052180384514
    8          0.571535085400        -0.090188362551
    9          7.406473731500         0.018030937101
   10          5.902626860300        -0.036618897659
   11          1.298475675000         0.114298574388
   12          0.571535085400         0.197553187120
   13          7.406473731500         0.022252382500
   14          5.902626860300        -0.045192200098
   15          1.298475675000         0.141058425426
   16          0.571535085400         0.243804803886
   17          7.406473731500        -0.022883253478
   18          5.902626860300         0.046473431333
   19          1.298475675000        -0.145057532797
   20          0.571535085400        -0.250716844663
   21          0.238455266100         0.011013349224
 D 21
    1          7.406473731500         0.000598864398
    2          5.902626860300        -0.001216229305
    3          1.298475675000         0.003796216833
    4          0.571535085400         0.006561365602
    5          7.406473731500        -0.004388817310
    6          5.902626860300         0.008913216824
    7          1.298475675000        -0.027820825893
    8          0.571535085400        -0.048085401353
    9          7.406473731500         0.009613489177
   10          5.902626860300        -0.019523964526
   11          1.298475675000         0.060940155338
   12          0.571535085400         0.105328714511
   13          7.406473731500         0.011864221872
   14          5.902626860300        -0.024094961016
   15          1.298475675000         0.075207607823
   16          0.571535085400         0.129988520860
   17          7.406473731500        -0.012200581058
   18          5.902626860300         0.024778070415
   19          1.298475675000        -0.077339797360
   20          0.571535085400        -0.133673788510
   21          0.238455266100         0.014911247975
 P 21
    1         17.000000000000        -0.020761477248
    2         12.431973432000         0.059870772089
    3          5.158621765800        -0.161402040063
    4          1.280145481200         0.283061877856
    5         17.000000000000        -0.012254708971
    6         12.431973432000         0.035339435583
    7          5.158621765800        -0.095269474551
    8          1.280145481200         0.167080641348
    9         17.000000000000        -0.004101209132
   10         12.431973432000         0.011826834588
   11          5.158621765800        -0.031883257279
   12          1.280145481200         0.055915864967
   13          0.628567909000         1.014964718818
   14          0.628567909000         0.599095001596
   15          0.628567909000         0.200495490929
   16          0.293804235500        -1.732719737018
   17          0.293804235500        -1.022758441125
   18          0.293804235500        -0.342280364899
   19          0.065000000000         0.702804071075
   20          0.065000000000         0.414838465098
   21          0.065000000000         0.138831473296
 D 21
    1         30.000000000000        -0.000033283813
    2         27.000000000000         0.000053549210
    3         13.078045684000        -0.000101100326
    4          4.810044971700         0.000565674795
    5          0.984978042600        -0.006721359230
    6          0.449104853400         0.008846069614
    7          0.114483529200         0.016323426750
    8          0.041720422000        -0.020564817997
    9          7.406473731500        -0.035401245287
   10          5.902626860300         0.071896128909
   11          1.298475675000        -0.224409405077
   12          0.571535085400        -0.387868295211
   13          7.406473731500        -0.058531834496
   14          5.902626860300         0.118871872558
   15          1.298475675000        -0.371034805433
   16          0.571535085400        -0.641295035730
   17          7.406473731500        -0.020919575868
   18          5.902626860300         0.042485412903
   19          1.298475675000        -0.132609729879
   20          0.571535085400        -0.229202113159
   21          7.406473731500        -0.001346136557
 P 21
    1         17.000000000000        -0.197633617992
    2         12.431973432000         0.569924632947
    3          5.158621765800        -1.536425792263
    4          1.280145481200         2.694535767790
    5         17.000000000000        -0.116655594510
    6         12.431973432000         0.336404795690
    7          5.158621765800        -0.906893604627
    8          1.280145481200         1.590481797138
    9         17.000000000000        -0.039040420342
   10         12.431973432000         0.112582552805
   11          5.158621765800        -0.303504582693
   12          1.280145481200         0.532276897376
   13          0.628567909000        -3.249616195372
   14          0.628567909000        -1.918124623991
   15          0.628567909000        -0.641927135209
   16          0.293804235500         1.553557328510
   17          0.293804235500         0.917005697732
   18          0.293804235500         0.306888735566
   19          0.065000000000        -0.266193642927
   20          0.065000000000        -0.157123964970
   21          0.065000000000        -0.052583724459
 end
  // -----------------------------------------------
  // The basis set
  // -----------------------------------------------
  BAS[ATNO] = new BFNGauss[NSH];
  // Basis function   1 L = s
  InitBFNGauss(BAS[ATNO][  0]);
  BAS[ATNO][  0].l  = 0;
  BAS[ATNO][  0].ng = 8;
  BAS[ATNO][  0].a[  0] =        30.000000000000;     BAS[ATNO][  0].d[  0] =         0.328314820541;
  BAS[ATNO][  0].a[  1] =        27.000000000000;     BAS[ATNO][  0].d[  1] =        -0.475393234397;
  BAS[ATNO][  0].a[  2] =        13.078045684000;     BAS[ATNO][  0].d[  2] =         0.434741966778;
  BAS[ATNO][  0].a[  3] =         4.810044971700;     BAS[ATNO][  0].d[  3] =        -0.830486138444;
  BAS[ATNO][  0].a[  4] =         0.984978042600;     BAS[ATNO][  0].d[  4] =         0.946603498544;
  BAS[ATNO][  0].a[  5] =         0.449104853400;     BAS[ATNO][  0].d[  5] =         0.367953323823;
  BAS[ATNO][  0].a[  6] =         0.114483529200;     BAS[ATNO][  0].d[  6] =         0.003217724991;
  BAS[ATNO][  0].a[  7] =         0.041720422000;     BAS[ATNO][  0].d[  7] =         0.000433984958;

FINAL SINGLE POINT ENERGY       -65.902644720883

DIPOLE MOMENT
-------------
                                X             Y             Z
Electronic contribution:     -0.00000      -0.00000       0.00000
Nuclear contribution   :      0.00000       0.00000       0.00000
                        -----------------------------------------
Total Dipole Moment    :     -0.00000      -0.00000       0.00000
                        -----------------------------------------
Magnitude (a.u.)       :      0.00000
Magnitude (Debye)      :      0.00000

Rotational constants in cm-1:     0.000000     0.000000     0.000000
Rotational constants in MHz :     0.000000     0.000000     0.000000

                             ****ORCA TERMINATED NORMALLY****
TOTAL RUN TIME: 0 days 0 hours 0 minutes 4 seconds 520 msec
