                         Program Version 4.2.1 -  RELEASE  -
|  1> # avogadro generated ORCA input file
|  2> # Basic Mode
|  3> #
|  4> ! wB97X-D3 OPT def2-TZVP def2/J CPCM
|  5> %cpcm
|  6>   epsilon 3
|  7> end
|  8> %pal
|  9>  nprocs 4
| 10> end
| 11>
| 12> * xyz 0 1
| 13>    C       -0.38838        4.42479        0.19957
| 14>    C       -1.11716        3.23911        0.05784
| 15>    C       -0.81317        5.40989        1.09097
| 16>    C       -2.29477        3.02423        0.81172
| 17>    C       -1.97073        5.21518        1.84417
| 18>    C       -2.71079        4.03589        1.70902
| 19>    C       -2.38774        0.28635        0.31734
| 20>    C       -1.07394        0.04319        0.78305
| 21>    C       -0.42591       -1.16103        0.48842
| 22>    C       -3.02249       -0.71732       -0.45195
| 23>    C       -2.36189       -1.91582       -0.74217
| 24>    C       -1.06752       -2.13775       -0.27276
| 25>    F        0.73381        4.62073       -0.53685
| 26>    F       -0.68078        2.32388       -0.84491
| 27>    F       -0.10111        6.55647        1.22522
| 28>    F       -2.37707        6.17214        2.71549
| 29>    F       -3.81295        3.87997        2.48621
| 30>    F       -4.26898       -0.53605       -0.95815
| 31>    F       -2.98023       -2.86509       -1.48827
| 32>    F       -0.43309       -3.30259       -0.55629
| 33>    F        0.83039       -1.38310        0.94935
| 34>    F       -0.41929        0.94891        1.55377
| 35>    B       -3.13912        1.66667        0.65349
| 36>    C       -4.73562        1.69237        0.83209
| 37>    C       -5.48788        2.83183        0.46120
| 38>    C       -6.87785        2.84840        0.61714
| 39>    C       -5.42528        0.57762        1.36420
| 40>    C       -7.54007        1.74034        1.14518
| 41>    C       -6.81536        0.60862        1.51851
| 42>    F       -4.89299        3.92270       -0.08580
| 43>    F       -7.58646        3.94475        0.24840
| 44>    F       -4.76111       -0.53427        1.77105
| 45>    F       -7.46194       -0.46443        2.03867
| 46>    F       -8.88786        1.76346        1.29561
| 47> *
| 48>
| 49>
| 50>                          ****END OF INPUT****
 Total Charge           Charge          ....    0
 Multiplicity           Mult            ....    1
 Number of Electrons    NEL             ....  248
Dispersion correction           -0.018231077
FINAL SINGLE POINT ENERGY     -2208.621465833958
Dispersion correction            ... done
Dispersion correction           -0.018434718
FINAL SINGLE POINT ENERGY     -2208.643008241708
Dispersion correction            ... done
Dispersion correction           -0.018553916
FINAL SINGLE POINT ENERGY     -2208.645967803362
Dispersion correction            ... done
FINAL SINGLE POINT ENERGY     -2208.642682387095
FINAL SINGLE POINT ENERGY     -2208.646198584586
FINAL SINGLE POINT ENERGY     -2208.646319444048
FINAL SINGLE POINT ENERGY     -2208.646474818538
FINAL SINGLE POINT ENERGY     -2208.646468197053
FINAL SINGLE POINT ENERGY     -2208.646455156874
FINAL SINGLE POINT ENERGY     -2208.642815387434
FINAL SINGLE POINT ENERGY     -2208.645823332358
Dispersion correction            ... done
Dispersion correction           -0.018530749
FINAL SINGLE POINT ENERGY     -2208.646462516255
Dispersion correction            ... done
Dispersion correction           -0.018528298
FINAL SINGLE POINT ENERGY     -2208.646460269361
Dispersion correction            ... done
                    ***********************HURRAY********************

CARTESIAN COORDINATES (ANGSTROEM)
---------------------------------
  C     -0.531955    4.471051    0.061726
  C     -1.265833    3.306769   -0.052791
  C     -0.832434    5.362118    1.076889
  C     -2.319016    2.991641    0.799507
  C     -1.865190    5.085585    1.955526
  C     -2.591420    3.921600    1.797327
  C     -2.407710    0.322281    0.324406
  C     -1.198547   -0.016826    0.922601
  C     -0.540439   -1.202366    0.661610
  C     -2.922005   -0.605532   -0.575477
  C     -2.280742   -1.790777   -0.876777
  C     -1.085020   -2.091127   -0.248273
  F      0.453429    4.741776   -0.785589
  F     -0.944223    2.484397   -1.052649
  F     -0.133999    6.476678    1.206711
  F     -2.146369    5.936987    2.934368
  F     -3.570683    3.694991    2.674384
  F     -4.066916   -0.357164   -1.213140
  F     -2.796675   -2.640666   -1.756582
  F     -0.463443   -3.226162   -0.517236
  F      0.601622   -1.496442    1.271094
  F     -0.639414    0.802108    1.814677
  B     -3.144347    1.667469    0.647322
  C     -4.701354    1.690489    0.820883
  C     -5.484888    2.729623    0.328322
  C     -6.858121    2.765248    0.469353
  C     -5.386333    0.677249    1.484771
  C     -7.495190    1.739826    1.146009
  C     -6.755890    0.690116    1.662347
  F     -4.920147    3.737264   -0.338238
  F     -7.568341    3.768256   -0.032408
  F     -4.719477   -0.350508    2.011787
  F     -7.366714   -0.288970    2.318753
  F     -8.807545    1.763058    1.299318

 Multiplicity           Mult            ....    1
 Number of Electrons    NEL             ....  248
 Basis Dimension        Dim             .... 1054

ORBITAL ENERGIES
----------------

  NO   OCC          E(Eh)            E(eV)
   0   2.0000     -24.841824      -675.9804
   1   2.0000     -24.841600      -675.9743
   2   2.0000     -24.841367      -675.9680
   3   2.0000     -24.834217      -675.7734
   4   2.0000     -24.834202      -675.7730
   5   2.0000     -24.834175      -675.7723
   6   2.0000     -24.834118      -675.7707
   7   2.0000     -24.833985      -675.7671
   8   2.0000     -24.833962      -675.7665
   9   2.0000     -24.832993      -675.7401
  10   2.0000     -24.832918      -675.7380
  11   2.0000     -24.832912      -675.7379
  12   2.0000     -24.832873      -675.7368
  13   2.0000     -24.832642      -675.7305
  14   2.0000     -24.832621      -675.7300
  15   2.0000     -10.413941      -283.3777
  16   2.0000     -10.413651      -283.3698
  17   2.0000     -10.413446      -283.3643
  18   2.0000     -10.408748      -283.2364
  19   2.0000     -10.408615      -283.2328
  20   2.0000     -10.408308      -283.2244
  21   2.0000     -10.408251      -283.2229
  22   2.0000     -10.408134      -283.2197
  23   2.0000     -10.408081      -283.2183
  24   2.0000     -10.401946      -283.0513
  25   2.0000     -10.401918      -283.0506
  26   2.0000     -10.401747      -283.0459
  27   2.0000     -10.401642      -283.0431
  28   2.0000     -10.401539      -283.0403
  29   2.0000     -10.401491      -283.0390
  30   2.0000     -10.315090      -280.6879
  31   2.0000     -10.314786      -280.6796
  32   2.0000     -10.314543      -280.6730
  33   2.0000      -6.913825      -188.1347
  34   2.0000      -1.402891       -38.1746
  35   2.0000      -1.402642       -38.1678
  36   2.0000      -1.402516       -38.1644
  37   2.0000      -1.393063       -37.9072
  38   2.0000      -1.392863       -37.9017
  39   2.0000      -1.392475       -37.8912
  40   2.0000      -1.389009       -37.7968
  41   2.0000      -1.388137       -37.7731
  42   2.0000      -1.387938       -37.7677
  43   2.0000      -1.377997       -37.4972
  44   2.0000      -1.377846       -37.4931
  45   2.0000      -1.377381       -37.4804
  46   2.0000      -1.375454       -37.4280
  47   2.0000      -1.374995       -37.4155
  48   2.0000      -1.374883       -37.4125
  49   2.0000      -1.037684       -28.2368
  50   2.0000      -1.035458       -28.1762
  51   2.0000      -1.035307       -28.1721
  52   2.0000      -0.931531       -25.3482
  53   2.0000      -0.914290       -24.8791
  54   2.0000      -0.914094       -24.8738
  55   2.0000      -0.910028       -24.7631
  56   2.0000      -0.909779       -24.7563
  57   2.0000      -0.909529       -24.7495
  58   2.0000      -0.815602       -22.1937
  59   2.0000      -0.797418       -21.6988
  60   2.0000      -0.797246       -21.6942
  61   2.0000      -0.789363       -21.4797
  62   2.0000      -0.789275       -21.4773
  63   2.0000      -0.789146       -21.4737
  64   2.0000      -0.727480       -19.7957
  65   2.0000      -0.723174       -19.6786
  66   2.0000      -0.723112       -19.6769
  67   2.0000      -0.718393       -19.5485
  68   2.0000      -0.718256       -19.5447
  69   2.0000      -0.715802       -19.4780
  70   2.0000      -0.709074       -19.2949
  71   2.0000      -0.698191       -18.9987
  72   2.0000      -0.698033       -18.9944
  73   2.0000      -0.666129       -18.1263
  74   2.0000      -0.665876       -18.1194
  75   2.0000      -0.665759       -18.1162
  76   2.0000      -0.665521       -18.1098
  77   2.0000      -0.662145       -18.0179
  78   2.0000      -0.661911       -18.0115
  79   2.0000      -0.653854       -17.7923
  80   2.0000      -0.653635       -17.7863
  81   2.0000      -0.651638       -17.7320
  82   2.0000      -0.638368       -17.3709
  83   2.0000      -0.638083       -17.3631
  84   2.0000      -0.635732       -17.2991
  85   2.0000      -0.632265       -17.2048
  86   2.0000      -0.625322       -17.0159
  87   2.0000      -0.620559       -16.8863
  88   2.0000      -0.620532       -16.8855
  89   2.0000      -0.612335       -16.6625
  90   2.0000      -0.612142       -16.6572
  91   2.0000      -0.605623       -16.4798
  92   2.0000      -0.592667       -16.1273
  93   2.0000      -0.588720       -16.0199
  94   2.0000      -0.588648       -16.0179
  95   2.0000      -0.585695       -15.9376
  96   2.0000      -0.585568       -15.9341
  97   2.0000      -0.584583       -15.9073
  98   2.0000      -0.565285       -15.3822
  99   2.0000      -0.565236       -15.3809
 100   2.0000      -0.562794       -15.3144
 101   2.0000      -0.562433       -15.3046
 102   2.0000      -0.562347       -15.3022
 103   2.0000      -0.560943       -15.2640
 104   2.0000      -0.556358       -15.1393
 105   2.0000      -0.556125       -15.1329
 106   2.0000      -0.531082       -14.4515
 107   2.0000      -0.530110       -14.4250
 108   2.0000      -0.530045       -14.4232
 109   2.0000      -0.520982       -14.1766
 110   2.0000      -0.501007       -13.6331
 111   2.0000      -0.500917       -13.6307
 112   2.0000      -0.500357       -13.6154
 113   2.0000      -0.490753       -13.3541
 114   2.0000      -0.490339       -13.3428
 115   2.0000      -0.480883       -13.0855
 116   2.0000      -0.464353       -12.6357
 117   2.0000      -0.464127       -12.6295
 118   2.0000      -0.381964       -10.3938
 119   2.0000      -0.363286        -9.8855
 120   2.0000      -0.363125        -9.8811
 121   2.0000      -0.357161        -9.7188
 122   2.0000      -0.356877        -9.7111
 123   2.0000      -0.353916        -9.6306
 124   0.0000      -0.044866        -1.2209
 125   0.0000       0.031599         0.8599
 126   0.0000       0.031726         0.8633
 127   0.0000       0.046470         1.2645
 128   0.0000       0.051689         1.4065

MULLIKEN ATOMIC CHARGES
-----------------------
   0 C :    0.146668
   1 C :    0.265970
   2 C :    0.220488
   3 C :   -0.257625
   4 C :    0.145888
   5 C :    0.267939
   6 C :   -0.269468
   7 C :    0.276976
   8 C :    0.136926
   9 C :    0.274338
  10 C :    0.141432
  11 C :    0.221203
  12 F :   -0.178216
  13 F :   -0.186989
  14 F :   -0.168044
  15 F :   -0.178087
  16 F :   -0.187060
  17 F :   -0.185963
  18 F :   -0.177083
  19 F :   -0.166672
  20 F :   -0.176913
  21 F :   -0.186042
  22 B :    0.323998
  23 C :   -0.248301
  24 C :    0.268901
  25 C :    0.143300
  26 C :    0.267101
  27 C :    0.219483
  28 C :    0.141086
  29 F :   -0.186641
  30 F :   -0.177484
  31 F :   -0.186516
  32 F :   -0.177752
  33 F :   -0.166842
Sum of atomic charges:   -0.0000000

LOEWDIN ATOMIC CHARGES
----------------------
   0 C :   -0.231056
   1 C :   -0.194487
   2 C :   -0.216551
   3 C :   -0.021054
   4 C :   -0.231098
   5 C :   -0.194831
   6 C :   -0.021269
   7 C :   -0.194232
   8 C :   -0.231157
   9 C :   -0.194515
  10 C :   -0.230848
  11 C :   -0.216675
  12 F :    0.228837
  13 F :    0.234318
  14 F :    0.245009
  15 F :    0.228879
  16 F :    0.234421
  17 F :    0.234859
  18 F :    0.228768
  19 F :    0.245224
  20 F :    0.228964
  21 F :    0.235029
  22 B :   -0.254011
  23 C :   -0.020639
  24 C :   -0.193820
  25 C :   -0.230957
  26 C :   -0.193844
  27 C :   -0.216582
  28 C :   -0.230851
  29 F :    0.235495
  30 F :    0.228900
  31 F :    0.235362
  32 F :    0.228673
  33 F :    0.245740

  Mayer bond orders larger than 0.100000
B(  0-C ,  1-C ) :   1.4195 B(  0-C ,  2-C ) :   1.3884 B(  0-C , 12-F ) :   1.0645
B(  1-C ,  3-C ) :   1.2995 B(  1-C , 13-F ) :   0.9831 B(  2-C ,  4-C ) :   1.3883
B(  2-C , 14-F ) :   1.0404 B(  3-C ,  5-C ) :   1.2980 B(  3-C , 22-B ) :   0.9736
B(  4-C ,  5-C ) :   1.4186 B(  4-C , 15-F ) :   1.0649 B(  5-C , 16-F ) :   0.9828
B(  6-C ,  7-C ) :   1.3016 B(  6-C ,  9-C ) :   1.3005 B(  6-C , 22-B ) :   0.9778
B(  7-C ,  8-C ) :   1.4116 B(  7-C , 21-F ) :   0.9870 B(  8-C , 11-C ) :   1.3885
B(  8-C , 20-F ) :   1.0700 B(  9-C , 10-C ) :   1.4132 B(  9-C , 17-F ) :   0.9865
B( 10-C , 11-C ) :   1.3872 B( 10-C , 18-F ) :   1.0693 B( 11-C , 19-F ) :   1.0462
B( 22-B , 23-C ) :   0.9814 B( 23-C , 24-C ) :   1.3001 B( 23-C , 26-C ) :   1.3002
B( 24-C , 25-C ) :   1.4166 B( 24-C , 29-F ) :   0.9841 B( 25-C , 27-C ) :   1.3877
B( 25-C , 30-F ) :   1.0682 B( 26-C , 28-C ) :   1.4170 B( 26-C , 31-F ) :   0.9858
B( 27-C , 28-C ) :   1.3882 B( 27-C , 33-F ) :   1.0452 B( 28-C , 32-F ) :   1.0678

Dispersion correction           -0.018527636
FINAL SINGLE POINT ENERGY     -2208.646460658837

DIPOLE MOMENT
-------------
                                X             Y             Z
Electronic contribution:     -0.01392      -0.00237       0.01049
Nuclear contribution   :     -0.00303      -0.00167      -0.01151
                        -----------------------------------------
Total Dipole Moment    :     -0.01694      -0.00404      -0.00102
                        -----------------------------------------
Magnitude (a.u.)       :      0.01745
Magnitude (Debye)      :      0.04435

Rotational constants in cm-1:     0.003933     0.003926     0.002307
Rotational constants in MHz :   117.903236   117.703997    69.176353

                             ****ORCA TERMINATED NORMALLY****
TOTAL RUN TIME: 1 days 7 hours 12 minutes 13 seconds 457 msec
