                         Program Version 4.2.1 -  RELEASE  -
                         Program Version 4.2.1 -  RELEASE  -
|  1> # avogadro generated ORCA input file
|  2> # Basic Mode
|  3> #
|  4> ! wB97X-D3 OPT def2-TZVP def2/J CPCM
|  5> %cpcm
|  6>   epsilon 3
|  7> end
|  8> %pal
|  9>  nprocs 4
| 10> end
| 11>
| 12> * xyz 0 1
| 13>    C       -6.45927        3.29015        0.00000
| 14>    C       -5.95320        1.99699        0.00000
| 15>    C       -3.93967        3.19400        0.00000
| 16>    C       -4.54726        1.93702        0.00000
| 17>    H       -4.00729        0.99875       -0.00000
| 18>    H       -6.59415        1.12408       -0.00000
| 19>    S       -5.16426        4.35571        0.00000
| 20>    H       -7.50656        3.56599        0.00000
| 21>    C       -2.49118        3.52136        0.00000
| 22>    C       -1.98282        4.81566        0.00000
| 23>    C       -0.58399        4.88925        0.00000
| 24>    C        0.04041        3.64501        0.00000
| 25>    H       -0.05027        5.82776        0.00000
| 26>    H       -2.61122        5.69726        0.00000
| 27>    S       -1.17491        2.45488        0.00000
| 28>    C        1.50991        3.41271        0.00000
| 29>    C        2.11177        2.15885        0.00000
| 30>    C        3.50844        2.20420        0.00000
| 31>    C        4.04417        3.48648        0.00000
| 32>    H        4.11569        1.30839       -0.00000
| 33>    H        1.56117        1.23041       -0.00000
| 34>    S        2.74749        4.58292        0.00000
| 35>    C        5.50396        3.76531        0.00000
| 36>    C        6.16366        4.99609        0.00000
| 37>    C        7.56696        4.87641        0.00000
| 38>    C        8.01924        3.56346        0.00000
| 39>    H        8.24526        5.72053        0.00000
| 40>    H        5.66434        5.95641        0.00000
| 41>    S        6.68140        2.55500        0.00000
| 42>    H        9.05348        3.24189        0.00000
| 43> *
| 44>
| 45>
| 46>                          ****END OF INPUT****
 Total Charge           Charge          ....    0
 Multiplicity           Mult            ....    1
 Number of Electrons    NEL             ....  170
Dispersion correction           -0.011601359
FINAL SINGLE POINT ENERGY     -2208.525839194412
Dispersion correction            ... done
Dispersion correction           -0.011644615
FINAL SINGLE POINT ENERGY     -2208.542495528372
Dispersion correction            ... done
Dispersion correction           -0.011656240
FINAL SINGLE POINT ENERGY     -2208.548326133680
Dispersion correction            ... done
FINAL SINGLE POINT ENERGY     -2208.549116904180
FINAL SINGLE POINT ENERGY     -2208.549281513191
FINAL SINGLE POINT ENERGY     -2208.549288313268
Dispersion correction            ... done
Dispersion correction           -0.011657482
FINAL SINGLE POINT ENERGY     -2208.549305161208
Dispersion correction            ... done
Dispersion correction           -0.011657881
FINAL SINGLE POINT ENERGY     -2208.549306901995
Dispersion correction            ... done
                    ***********************HURRAY********************

CARTESIAN COORDINATES (ANGSTROEM)
---------------------------------
  C     -6.283747    3.258720   -0.000512
  C     -5.758704    2.004861   -0.005838
  C     -3.809275    3.270223   -0.000286
  C     -4.340490    2.010261   -0.005636
  H     -3.737579    1.111403   -0.009444
  H     -6.358926    1.105487   -0.009659
  S     -5.062679    4.450993    0.004425
  H     -7.322894    3.548938    0.000576
  C     -2.408885    3.663309    0.001446
  C     -1.874163    4.920364    0.003000
  C     -0.460110    4.924979    0.003926
  C      0.082116    3.670834    0.003381
  H      0.133670    5.829718    0.004936
  H     -2.473575    5.821281    0.003335
  S     -1.160000    2.476531    0.000878
  C      1.482676    3.287066    0.003809
  C      2.024967    2.032959    0.006172
  C      3.439031    2.037656    0.005438
  C      3.973702    3.294719    0.002203
  H      4.038470    1.136806    0.006907
  H      1.431233    1.128190    0.008658
  S      2.724756    4.481406   -0.000067
  C      5.374052    3.687955   -0.000222
  C      5.905088    4.948013   -0.003668
  C      7.323297    4.953585   -0.005098
  C      7.848506    3.699780   -0.003063
  H      7.923395    5.853044   -0.007447
  H      5.302069    5.846819   -0.004464
  S      6.627607    2.507324   -0.000096
  H      8.887694    3.409705   -0.003588

 Multiplicity           Mult            ....    1
 Number of Electrons    NEL             ....  170
 Basis Dimension        Dim             ....  704

ORBITAL ENERGIES
----------------

  NO   OCC          E(Eh)            E(eV)
   0   2.0000     -88.986486     -2421.4454
   1   2.0000     -88.986480     -2421.4452
   2   2.0000     -88.984020     -2421.3783
   3   2.0000     -88.984016     -2421.3782
   4   2.0000     -10.325935      -280.9830
   5   2.0000     -10.325642      -280.9750
   6   2.0000     -10.325631      -280.9747
   7   2.0000     -10.325584      -280.9734
   8   2.0000     -10.322917      -280.9009
   9   2.0000     -10.322912      -280.9007
  10   2.0000     -10.305457      -280.4257
  11   2.0000     -10.305454      -280.4257
  12   2.0000     -10.287329      -279.9325
  13   2.0000     -10.287320      -279.9322
  14   2.0000     -10.286651      -279.9140
  15   2.0000     -10.286647      -279.9139
  16   2.0000     -10.284550      -279.8568
  17   2.0000     -10.284545      -279.8567
  18   2.0000     -10.283492      -279.8280
  19   2.0000     -10.283490      -279.8280
  20   2.0000      -8.082567      -219.9378
  21   2.0000      -8.082561      -219.9377
  22   2.0000      -8.079968      -219.8671
  23   2.0000      -8.079964      -219.8670
  24   2.0000      -6.035323      -164.2295
  25   2.0000      -6.035316      -164.2293
  26   2.0000      -6.032585      -164.1550
  27   2.0000      -6.032581      -164.1549
  28   2.0000      -6.031380      -164.1222
  29   2.0000      -6.031374      -164.1220
  30   2.0000      -6.028641      -164.0477
  31   2.0000      -6.028637      -164.0476
  32   2.0000      -6.028380      -164.0406
  33   2.0000      -6.028374      -164.0404
  34   2.0000      -6.026108      -163.9787
  35   2.0000      -6.026104      -163.9786
  36   2.0000      -1.034820       -28.1589
  37   2.0000      -1.024179       -27.8693
  38   2.0000      -1.010039       -27.4846
  39   2.0000      -0.998590       -27.1730
  40   2.0000      -0.912294       -24.8248
  41   2.0000      -0.883461       -24.0402
  42   2.0000      -0.867666       -23.6104
  43   2.0000      -0.865624       -23.5548
  44   2.0000      -0.852723       -23.2038
  45   2.0000      -0.852547       -23.1990
  46   2.0000      -0.832703       -22.6590
  47   2.0000      -0.804830       -21.9006
  48   2.0000      -0.728682       -19.8284
  49   2.0000      -0.713619       -19.4186
  50   2.0000      -0.691585       -18.8190
  51   2.0000      -0.673650       -18.3309
  52   2.0000      -0.657991       -17.9048
  53   2.0000      -0.642611       -17.4863
  54   2.0000      -0.639113       -17.3911
  55   2.0000      -0.637403       -17.3446
  56   2.0000      -0.633564       -17.2402
  57   2.0000      -0.616778       -16.7834
  58   2.0000      -0.575427       -15.6582
  59   2.0000      -0.552039       -15.0217
  60   2.0000      -0.532417       -14.4878
  61   2.0000      -0.518540       -14.1102
  62   2.0000      -0.517576       -14.0839
  63   2.0000      -0.514019       -13.9872
  64   2.0000      -0.508138       -13.8271
  65   2.0000      -0.507366       -13.8061
  66   2.0000      -0.498061       -13.5529
  67   2.0000      -0.495835       -13.4923
  68   2.0000      -0.494135       -13.4461
  69   2.0000      -0.480345       -13.0709
  70   2.0000      -0.478229       -13.0133
  71   2.0000      -0.476734       -12.9726
  72   2.0000      -0.464676       -12.6445
  73   2.0000      -0.453296       -12.3348
  74   2.0000      -0.440730       -11.9929
  75   2.0000      -0.433043       -11.7837
  76   2.0000      -0.428861       -11.6699
  77   2.0000      -0.405994       -11.0477
  78   2.0000      -0.362796        -9.8722
  79   2.0000      -0.355888        -9.6842
  80   2.0000      -0.351423        -9.5627
  81   2.0000      -0.345627        -9.4050
  82   2.0000      -0.342901        -9.3308
  83   2.0000      -0.311772        -8.4837
  84   2.0000      -0.267259        -7.2725
  85   0.0000      -0.009902        -0.2694
  86   0.0000       0.026953         0.7334
  87   0.0000       0.064651         1.7592
  88   0.0000       0.094263         2.5650
  89   0.0000       0.096194         2.6176

MULLIKEN ATOMIC CHARGES
-----------------------
   0 C :   -0.243865
   1 C :   -0.178641
   2 C :   -0.022211
   3 C :   -0.259659
   4 H :    0.172546
   5 H :    0.162024
   6 S :    0.062085
   7 H :    0.194084
   8 C :    0.111488
   9 C :   -0.176702
  10 C :   -0.225659
  11 C :    0.047740
  12 H :    0.172490
  13 H :    0.171654
  14 S :    0.012624
  15 C :    0.047745
  16 C :   -0.225645
  17 C :   -0.176711
  18 C :    0.111520
  19 H :    0.171642
  20 H :    0.172498
  21 S :    0.012597
  22 C :   -0.022240
  23 C :   -0.259625
  24 C :   -0.178686
  25 C :   -0.243860
  26 H :    0.162026
  27 H :    0.172555
  28 S :    0.062096
  29 H :    0.194090
Sum of atomic charges:   -0.0000000

LOEWDIN ATOMIC CHARGES
----------------------
   0 C :   -0.402771
   1 C :   -0.209671
   2 C :   -0.383472
   3 C :   -0.176828
   4 H :    0.149741
   5 H :    0.149998
   6 S :    0.742475
   7 H :    0.138028
   8 C :   -0.375810
   9 C :   -0.170183
  10 C :   -0.169740
  11 C :   -0.377077
  12 H :    0.151618
  13 H :    0.151599
  14 S :    0.782093
  15 C :   -0.377073
  16 C :   -0.169736
  17 C :   -0.170179
  18 C :   -0.375816
  19 H :    0.151588
  20 H :    0.151619
  21 S :    0.782099
  22 C :   -0.383464
  23 C :   -0.176827
  24 C :   -0.209675
  25 C :   -0.402777
  26 H :    0.149999
  27 H :    0.149742
  28 S :    0.742474
  29 H :    0.138029

  Mayer bond orders larger than 0.100000
B(  0-C ,  1-C ) :   1.6830 B(  0-C ,  6-S ) :   1.2974 B(  0-C ,  7-H ) :   0.9339
B(  1-C ,  3-C ) :   1.2975 B(  1-C ,  5-H ) :   0.9655 B(  2-C ,  3-C ) :   1.5089
B(  2-C ,  6-S ) :   1.3254 B(  2-C ,  8-C ) :   0.9172 B(  3-C ,  4-H ) :   0.9390
B(  6-S ,  8-C ) :  -0.1179 B(  8-C ,  9-C ) :   1.5029 B(  8-C , 14-S ) :   1.2967
B(  9-C , 10-C ) :   1.3265 B(  9-C , 13-H ) :   0.9514 B( 10-C , 11-C ) :   1.4890
B( 10-C , 12-H ) :   0.9477 B( 11-C , 14-S ) :   1.3167 B( 11-C , 15-C ) :   0.9374
B( 15-C , 16-C ) :   1.4890 B( 15-C , 21-S ) :   1.3167 B( 16-C , 17-C ) :   1.3265
B( 16-C , 20-H ) :   0.9477 B( 17-C , 18-C ) :   1.5029 B( 17-C , 19-H ) :   0.9514
B( 18-C , 21-S ) :   1.2967 B( 18-C , 22-C ) :   0.9172 B( 18-C , 28-S ) :  -0.1179
B( 22-C , 23-C ) :   1.5089 B( 22-C , 28-S ) :   1.3254 B( 23-C , 24-C ) :   1.2975
B( 23-C , 27-H ) :   0.9390 B( 24-C , 25-C ) :   1.6830 B( 24-C , 26-H ) :   0.9655
B( 25-C , 28-S ) :   1.2974 B( 25-C , 29-H ) :   0.9339

Dispersion correction           -0.011658238
FINAL SINGLE POINT ENERGY     -2208.549307552425

DIPOLE MOMENT
-------------
                                X             Y             Z
Electronic contribution:      0.00035      -0.00059       0.01387
Nuclear contribution   :     -0.00037       0.00060      -0.01574
                        -----------------------------------------
Total Dipole Moment    :     -0.00002       0.00001      -0.00187
                        -----------------------------------------
Magnitude (a.u.)       :      0.00187
Magnitude (Debye)      :      0.00476

Rotational constants in cm-1:     0.044865     0.002570     0.002430
Rotational constants in MHz :  1345.004998    77.032265    72.859477

                             ****ORCA TERMINATED NORMALLY****
TOTAL RUN TIME: 0 days 7 hours 14 minutes 16 seconds 921 msec
