                         Program Version 4.2.1 -  RELEASE  -
|  1> # avogadro generated ORCA input file
|  2> # Basic Mode
|  3> #
|  4> ! wB97X-D3 OPT def2-TZVP def2/J CPCM
|  5> %cpcm
|  6>   epsilon 3
|  7> end
|  8> %pal
|  9>  nprocs 4
| 10> end
| 11>
| 12> * xyz 0 1
| 13>    C       -9.31066        1.04047        0.08788
| 14>    C       -9.23788       -0.34933        0.15573
| 15>    C       -8.14435        1.80658        0.08107
| 16>    H      -10.27628        1.52735        0.04025
| 17>    C       -7.99806       -0.98675        0.21751
| 18>    H      -10.14725       -0.93649        0.16052
| 19>    C       -6.88042        1.18705        0.14257
| 20>    H       -8.24404        2.88224        0.02744
| 21>    C       -6.80590       -0.23584        0.21211
| 22>    H       -7.98484       -2.06703        0.26916
| 23>    C       -5.68651        1.94546        0.13673
| 24>    C       -5.53945       -0.86266        0.27411
| 25>    C       -4.45811        1.30365        0.19839
| 26>    C       -4.38495       -0.09340        0.26681
| 27>    C       -3.30360        2.07291        0.19092
| 28>    C       -3.15655       -0.73521        0.32859
| 29>    C       -2.03715        1.44608        0.25286
| 30>    C       -1.96264        0.02321        0.32268
| 31>    C       -0.84498        2.19697        0.24714
| 32>    C        0.39483        1.55956        0.30896
| 33>    H       -0.85820        3.27724        0.19517
| 34>    C       -0.69871       -0.59632        0.38430
| 35>    C        0.46761        0.16978        0.37723
| 36>    H       -0.59903       -1.67197        0.43823
| 37>    H        1.30421        2.14671        0.30390
| 38>    H        1.43323       -0.31710        0.42495
| 39>    S       -5.65674        3.73894        0.05217
| 40>    S       -3.52052        3.85317        0.10045
| 41>    S       -5.32252       -2.64294        0.36429
| 42>    S       -3.18633       -2.52867        0.41343
| 43> *
| 44>
| 45>
| 46>                          ****END OF INPUT****
 Total Charge           Charge          ....    0
 Multiplicity           Mult            ....    1
 Number of Electrons    NEL             ....  180
Dispersion correction           -0.015539798
FINAL SINGLE POINT ENERGY     -2283.583012020932
Dispersion correction            ... done
Dispersion correction           -0.015578906
FINAL SINGLE POINT ENERGY     -2283.594407019779
Dispersion correction            ... done
Dispersion correction           -0.015609564
FINAL SINGLE POINT ENERGY     -2283.597662297651
Dispersion correction            ... done
FINAL SINGLE POINT ENERGY     -2283.597868221842
Dispersion correction            ... done
Dispersion correction           -0.015606592
FINAL SINGLE POINT ENERGY     -2283.597947890846
Dispersion correction            ... done
Dispersion correction           -0.015606164
FINAL SINGLE POINT ENERGY     -2283.597951213169
Dispersion correction            ... done
                    ***********************HURRAY********************

CARTESIAN COORDINATES (ANGSTROEM)
---------------------------------
  C     -9.302976    1.056331    0.086799
  C     -9.228462   -0.364757    0.157103
  C     -8.173597    1.803515    0.080628
  H    -10.271825    1.537397    0.037748
  C     -8.026956   -0.986357    0.218471
  H    -10.141488   -0.947024    0.161878
  C     -6.881602    1.195486    0.143022
  H     -8.242377    2.884677    0.027358
  C     -6.806249   -0.243138    0.213061
  H     -7.980849   -2.068569    0.273583
  C     -5.705343    1.937595    0.137359
  C     -5.559212   -0.856151    0.272264
  C     -4.458478    1.309604    0.198551
  C     -4.384592   -0.099210    0.266013
  C     -3.283802    2.066470    0.192108
  C     -3.137745   -0.727232    0.326969
  C     -2.036793    1.453427    0.251659
  C     -1.961439    0.014798    0.321816
  C     -0.816035    2.196566    0.246542
  C      0.385411    1.574896    0.308420
  H     -0.862060    3.278817    0.191186
  C     -0.669514   -0.593368    0.384989
  C      0.459881    0.153815    0.379158
  H     -0.600773   -1.674553    0.438930
  H      1.298459    2.157128    0.303784
  H      1.428707   -0.327223    0.428931
  S     -5.627127    3.689730    0.054260
  S     -3.543267    3.800934    0.106126
  S     -5.299763   -2.590597    0.358157
  S     -3.215925   -2.479346    0.408679

 Multiplicity           Mult            ....    1
 Number of Electrons    NEL             ....  180
 Basis Dimension        Dim             ....  754

ORBITAL ENERGIES
----------------

  NO   OCC          E(Eh)            E(eV)
   0   2.0000     -88.996101     -2421.7070
   1   2.0000     -88.996098     -2421.7070
   2   2.0000     -88.996010     -2421.7046
   3   2.0000     -88.996005     -2421.7044
   4   2.0000     -10.333514      -281.1892
   5   2.0000     -10.333502      -281.1889
   6   2.0000     -10.333461      -281.1878
   7   2.0000     -10.333440      -281.1872
   8   2.0000     -10.315887      -280.7096
   9   2.0000     -10.315424      -280.6970
  10   2.0000     -10.310177      -280.5542
  11   2.0000     -10.310161      -280.5537
  12   2.0000     -10.309795      -280.5438
  13   2.0000     -10.309792      -280.5437
  14   2.0000     -10.292124      -280.0629
  15   2.0000     -10.292112      -280.0626
  16   2.0000     -10.292062      -280.0613
  17   2.0000     -10.292056      -280.0611
  18   2.0000     -10.288863      -279.9742
  19   2.0000     -10.288859      -279.9741
  20   2.0000     -10.288433      -279.9625
  21   2.0000     -10.288429      -279.9624
  22   2.0000      -8.090490      -220.1534
  23   2.0000      -8.090486      -220.1533
  24   2.0000      -8.090391      -220.1507
  25   2.0000      -8.090388      -220.1507
  26   2.0000      -6.044822      -164.4880
  27   2.0000      -6.044820      -164.4879
  28   2.0000      -6.044625      -164.4826
  29   2.0000      -6.044622      -164.4825
  30   2.0000      -6.040267      -164.3640
  31   2.0000      -6.040264      -164.3639
  32   2.0000      -6.040175      -164.3615
  33   2.0000      -6.040171      -164.3614
  34   2.0000      -6.033786      -164.1877
  35   2.0000      -6.033783      -164.1876
  36   2.0000      -6.033700      -164.1853
  37   2.0000      -6.033697      -164.1852
  38   2.0000      -1.055997       -28.7351
  39   2.0000      -1.009961       -27.4824
  40   2.0000      -1.005600       -27.3638
  41   2.0000      -0.980915       -26.6921
  42   2.0000      -0.934522       -25.4296
  43   2.0000      -0.930425       -25.3182
  44   2.0000      -0.924318       -25.1520
  45   2.0000      -0.888270       -24.1711
  46   2.0000      -0.876738       -23.8573
  47   2.0000      -0.853379       -23.2216
  48   2.0000      -0.846187       -23.0259
  49   2.0000      -0.829070       -22.5601
  50   2.0000      -0.774099       -21.0643
  51   2.0000      -0.759530       -20.6679
  52   2.0000      -0.748645       -20.3717
  53   2.0000      -0.729574       -19.8527
  54   2.0000      -0.703703       -19.1487
  55   2.0000      -0.684657       -18.6305
  56   2.0000      -0.673151       -18.3174
  57   2.0000      -0.657197       -17.8832
  58   2.0000      -0.624502       -16.9936
  59   2.0000      -0.618803       -16.8385
  60   2.0000      -0.580614       -15.7993
  61   2.0000      -0.575056       -15.6481
  62   2.0000      -0.567580       -15.4446
  63   2.0000      -0.560998       -15.2655
  64   2.0000      -0.560433       -15.2502
  65   2.0000      -0.553504       -15.0616
  66   2.0000      -0.537877       -14.6364
  67   2.0000      -0.532160       -14.4808
  68   2.0000      -0.524463       -14.2714
  69   2.0000      -0.511504       -13.9187
  70   2.0000      -0.498028       -13.5520
  71   2.0000      -0.489722       -13.3260
  72   2.0000      -0.489258       -13.3134
  73   2.0000      -0.476205       -12.9582
  74   2.0000      -0.471195       -12.8219
  75   2.0000      -0.467844       -12.7307
  76   2.0000      -0.456706       -12.4276
  77   2.0000      -0.449387       -12.2284
  78   2.0000      -0.446722       -12.1559
  79   2.0000      -0.430168       -11.7055
  80   2.0000      -0.425737       -11.5849
  81   2.0000      -0.419625       -11.4186
  82   2.0000      -0.418957       -11.4004
  83   2.0000      -0.413741       -11.2585
  84   2.0000      -0.380499       -10.3539
  85   2.0000      -0.340567        -9.2673
  86   2.0000      -0.339738        -9.2447
  87   2.0000      -0.328295        -8.9334
  88   2.0000      -0.325685        -8.8623
  89   2.0000      -0.229489        -6.2447
  90   0.0000      -0.033320        -0.9067
  91   0.0000       0.018988         0.5167
  92   0.0000       0.022704         0.6178
  93   0.0000       0.023981         0.6526
  94   0.0000       0.031295         0.8516

MULLIKEN ATOMIC CHARGES
-----------------------
   0 C :   -0.147839
   1 C :   -0.141986
   2 C :   -0.248008
   3 H :    0.157240
   4 C :   -0.257205
   5 H :    0.154527
   6 C :    0.081718
   7 H :    0.156175
   8 C :    0.082080
   9 H :    0.157755
  10 C :   -0.013265
  11 C :   -0.014920
  12 C :    0.050064
  13 C :    0.050020
  14 C :   -0.015037
  15 C :   -0.013212
  16 C :    0.082091
  17 C :    0.081663
  18 C :   -0.257192
  19 C :   -0.141991
  20 H :    0.157759
  21 C :   -0.247978
  22 C :   -0.147854
  23 H :    0.156193
  24 H :    0.154529
  25 H :    0.157231
  26 S :   -0.007201
  27 S :   -0.009099
  28 S :   -0.009075
  29 S :   -0.007181
Sum of atomic charges:   -0.0000000

LOEWDIN ATOMIC CHARGES
----------------------
   0 C :   -0.135922
   1 C :   -0.135623
   2 C :   -0.110265
   3 H :    0.154357
   4 C :   -0.110400
   5 H :    0.154181
   6 C :   -0.103142
   7 H :    0.153541
   8 C :   -0.103170
   9 H :    0.153410
  10 C :   -0.313616
  11 C :   -0.313724
  12 C :   -0.111233
  13 C :   -0.111230
  14 C :   -0.313712
  15 C :   -0.313679
  16 C :   -0.103173
  17 C :   -0.103141
  18 C :   -0.110406
  19 C :   -0.135625
  20 H :    0.153422
  21 C :   -0.110268
  22 C :   -0.135922
  23 H :    0.153551
  24 H :    0.154181
  25 H :    0.154354
  26 S :    0.410791
  27 S :    0.410778
  28 S :    0.410822
  29 S :    0.410864

  Mayer bond orders larger than 0.100000
B(  0-C ,  1-C ) :   1.1660 B(  0-C ,  2-C ) :   1.6506 B(  0-C ,  3-H ) :   0.9815
B(  1-C ,  4-C ) :   1.6523 B(  1-C ,  5-H ) :   0.9834 B(  2-C ,  6-C ) :   1.1440
B(  2-C ,  7-H ) :   0.9678 B(  4-C ,  8-C ) :   1.1389 B(  4-C ,  9-H ) :   0.9676
B(  6-C ,  8-C ) :   1.2253 B(  6-C , 10-C ) :   1.3224 B(  8-C , 11-C ) :   1.3247
B( 10-C , 12-C ) :   1.2890 B( 10-C , 26-S ) :   1.2126 B( 11-C , 13-C ) :   1.2916
B( 11-C , 28-S ) :   1.2110 B( 12-C , 13-C ) :   1.0565 B( 12-C , 14-C ) :   1.2917
B( 13-C , 15-C ) :   1.2889 B( 14-C , 16-C ) :   1.3247 B( 14-C , 27-S ) :   1.2110
B( 15-C , 17-C ) :   1.3224 B( 15-C , 29-S ) :   1.2127 B( 16-C , 17-C ) :   1.2253
B( 16-C , 18-C ) :   1.1389 B( 17-C , 21-C ) :   1.1439 B( 18-C , 19-C ) :   1.6524
B( 18-C , 20-H ) :   0.9676 B( 19-C , 22-C ) :   1.1659 B( 19-C , 24-H ) :   0.9834
B( 21-C , 22-C ) :   1.6507 B( 21-C , 23-H ) :   0.9677 B( 22-C , 25-H ) :   0.9815
B( 26-S , 27-S ) :   1.0878 B( 28-S , 29-S ) :   1.0879

Dispersion correction           -0.015605423
FINAL SINGLE POINT ENERGY     -2283.597950732448

DIPOLE MOMENT
-------------
                                X             Y             Z
Electronic contribution:     -0.00002       0.00012      -0.00458
Nuclear contribution   :     -0.00000      -0.00048       0.00508
                        -----------------------------------------
Total Dipole Moment    :     -0.00003      -0.00036       0.00050
                        -----------------------------------------
Magnitude (a.u.)       :      0.00062
Magnitude (Debye)      :      0.00158

Rotational constants in cm-1:     0.010865     0.006832     0.004195
Rotational constants in MHz :   325.723452   204.829408   125.751410

                             ****ORCA TERMINATED NORMALLY****
TOTAL RUN TIME: 0 days 5 hours 12 minutes 30 seconds 851 msec
