                         Program Version 4.2.1 -  RELEASE  -
|  1> # avogadro generated ORCA input file
|  2> # Basic Mode
|  3> #
|  4> ! wB97X-D3 OPT def2-TZVP def2/J CPCM
|  5> %cpcm
|  6>   epsilon 3
|  7> end
|  8> %pal
|  9>  nprocs 4
| 10> end
| 11>
| 12> * xyz 0 1
| 13>    O       -1.16789        1.74416       -0.09506
| 14>    O        1.78021        2.07731       -0.10333
| 15>    O        0.59477       -0.64114       -0.01911
| 16>   Mo        0.40192        1.07906        0.53286
| 17> *
| 18>
| 19>
| 20>                          ****END OF INPUT****
 Total Charge           Charge          ....    0
 Multiplicity           Mult            ....    1
 Number of Electrons    NEL             ....   38
Dispersion correction           -0.000405622
FINAL SINGLE POINT ENERGY      -293.954412819240
Dispersion correction            ... done
Dispersion correction           -0.000373130
FINAL SINGLE POINT ENERGY      -293.980660489875
Dispersion correction            ... done
Dispersion correction           -0.000289602
FINAL SINGLE POINT ENERGY      -293.998362758951
Dispersion correction            ... done
FINAL SINGLE POINT ENERGY      -293.999006329703
FINAL SINGLE POINT ENERGY      -293.999030601877
Dispersion correction            ... done
Dispersion correction           -0.000299380
FINAL SINGLE POINT ENERGY      -293.999033376999
Dispersion correction            ... done
Dispersion correction           -0.000298799
FINAL SINGLE POINT ENERGY      -293.999035169788
Dispersion correction            ... done
                    ***********************HURRAY********************

CARTESIAN COORDINATES (ANGSTROEM)
---------------------------------
  O     -1.057794    1.696139   -0.083165
  O      1.683765    2.006154   -0.090861
  O      0.581114   -0.521207   -0.012634
  Mo     0.401924    1.078303    0.502020

 Multiplicity           Mult            ....    1
 Number of Electrons    NEL             ....   38
 Basis Dimension        Dim             ....  133

ORBITAL ENERGIES
----------------

  NO   OCC          E(Eh)            E(eV)
   0   2.0000     -19.259140      -524.0678
   1   2.0000     -19.259084      -524.0663
   2   2.0000     -19.259034      -524.0650
   3   2.0000      -2.816048       -76.6285
   4   2.0000      -1.826129       -49.6915
   5   2.0000      -1.825953       -49.6867
   6   2.0000      -1.813992       -49.3612
   7   2.0000      -1.047958       -28.5164
   8   2.0000      -1.032251       -28.0890
   9   2.0000      -1.032157       -28.0864
  10   2.0000      -0.548291       -14.9198
  11   2.0000      -0.548109       -14.9148
  12   2.0000      -0.517470       -14.0811
  13   2.0000      -0.517266       -14.0755
  14   2.0000      -0.516235       -14.0475
  15   2.0000      -0.433219       -11.7885
  16   2.0000      -0.418042       -11.3755
  17   2.0000      -0.418014       -11.3747
  18   2.0000      -0.411029       -11.1847
  19   0.0000      -0.068668        -1.8686
  20   0.0000      -0.004514        -0.1228
  21   0.0000      -0.004416        -0.1202
  22   0.0000       0.065418         1.7801
  23   0.0000       0.093960         2.5568

MULLIKEN ATOMIC CHARGES
-----------------------
   0 O :   -0.635231
   1 O :   -0.635584
   2 O :   -0.635601
   3 Mo:    1.906417
Sum of atomic charges:   -0.0000000

LOEWDIN ATOMIC CHARGES
----------------------
   0 O :   -0.350372
   1 O :   -0.350399
   2 O :   -0.350304
   3 Mo:    1.051075

  Mayer bond orders larger than 0.100000
B(  0-O ,  1-O ) :   0.1572 B(  0-O ,  2-O ) :   0.1571 B(  0-O ,  3-Mo) :   1.7753
B(  1-O ,  2-O ) :   0.1572 B(  1-O ,  3-Mo) :   1.7734 B(  2-O ,  3-Mo) :   1.7734

Dispersion correction           -0.000298807
FINAL SINGLE POINT ENERGY      -293.999035338945

DIPOLE MOMENT
-------------
                                X             Y             Z
Electronic contribution:     -0.01245       0.46072      14.49976
Nuclear contribution   :      0.00936      -0.38408     -12.07920
                        -----------------------------------------
Total Dipole Moment    :     -0.00309       0.07664       2.42056
                        -----------------------------------------
Magnitude (a.u.)       :      2.42178
Magnitude (Debye)      :      6.15567

Rotational constants in cm-1:     0.237270     0.237124     0.138462
Rotational constants in MHz :  7113.173914  7108.808257  4150.980671

                             ****ORCA TERMINATED NORMALLY****
TOTAL RUN TIME: 0 days 0 hours 4 minutes 55 seconds 709 msec
