                         Program Version 4.2.1 -  RELEASE  -
|  1> # input to generate an atomic fitting density for Mo
|  2> # this file is use internally by ORCA
|  3> #
|  4> # atomic ground state (S=5): 1s2 2s2 2p6 3s2 3p6 4s2 3d10 4p6 5s2 4d4
|  5> #
|  6> ! RHF AllowRHF def2-SVP def2/J  NoMulliken NoLoewdin NoMayer NoPrintMOs
|  7>
|  8> %output print[p_atomdensfit] 2 end
|  9>
| 10> %scf
| 11>   guess hcore
| 12>   maxiter 1000
| 13>   maxdisk 500000
| 14>   SCFMode Conventional
| 15>   lshift 0.600000
| 16>   hftyp rohf
| 17>   rohf_case sahf
| 18>   rohf_numop   2
| 19>   rohf_norb[1] 5
| 20>   rohf_nel[1]  4
| 21> end
| 22>
| 23> %basis
| 24>   NewECP 42
| 25>     N_core 28
| 26>     lmax f
| 27>     s 4
| 28>       1       9.7145938000    180.1031085000  2
| 29>       2       4.6805004000     24.9972279000  2
| 30>       3       9.4500000000     24.8051771000  2
| 31>       4       4.7200000000      4.1537815000  2
| 32>     p 4
| 33>       1       8.1421366000    123.7727523000  2
| 34>       2       4.6259863000     19.5302280000  2
| 35>       3       9.4500000000     24.8051771000  2
| 36>       4       4.7200000000      4.1537815000  2
| 37>     d 4
| 38>       1       6.6184148000     48.3750223000  2
| 39>       2       3.2487516000      8.8920527000  2
| 40>       3       9.4500000000     24.8051771000  2
| 41>       4       4.7200000000      4.1537815000  2
| 42>     f 2
| 43>       1       9.4500000000    -24.8051771000  2
| 44>       2       4.7200000000     -4.1537815000  2
| 45>   end
| 46>   NewGTO 42
| 47>     s 2
| 48>      1      14.0000000000     -2.0770233737
| 49>      2      12.5000000000      3.0616178399
| 50>     s 1
| 51>      1       4.0921501803      1.0000000000
| 52>     s 1
| 53>      1       0.9705360259      1.0000000000
| 54>     s 1
| 55>      1       0.4421762017      1.0000000000
| 56>     s 1
| 57>      1       0.0929150243      1.0000000000
| 58>     s 1
| 59>      1       0.0350163144      1.0000000000
| 60>     p 4
| 61>      1       8.8931117915      0.0830010811
| 62>      2       5.4689112270     -0.2792276027
| 63>      3       1.3548473007      0.5492197283
| 64>      4       0.6549486746      0.5789213489
| 65>     p 1
| 66>      1       0.3042819747      1.0000000000
| 67>     p 1
| 68>      1       0.1000000000      1.0000000000
| 69>     p 1
| 70>      1       0.0330000000      1.0000000000
| 71>     d 3
| 72>      1       5.0044445497     -0.0359172347
| 73>      2       1.7736823324      0.3487122377
| 74>      3       0.7695059170      0.7275979769
| 75>     d 1
| 76>      1       0.3153087894      1.0000000000
| 77>     d 1
| 78>      1       0.1175437439      1.0000000000
| 79>   end
| 80>   NewAuxGTO 42
| 81>     S 1
| 82>      1 1310.72 1.0
| 83>     S 1
| 84>      1  655.36 1.0
| 85>     S 1
| 86>      1  327.68 1.0
| 87>     S 1
| 88>      1  163.84 1.0
| 89>     S 1
| 90>      1   81.82 1.0
| 91>     S 1
| 92>      1   40.96 1.0
| 93>     S 1
| 94>      1   20.48 1.0
| 95>     S 1
| 96>      1   10.24 1.0
| 97>     S 1
| 98>      1    5.12 1.0
| 99>     S 1
|100>      1    2.56 1.0
|101>     S 1
|102>      1    1.28 1.0
|103>     S 1
|104>      1    0.64 1.0
|105>     S 1
|106>      1    0.32 1.0
|107>     S 1
|108>      1    0.16 1.0
|109>     S 1
|110>      1    0.08 1.0
|111>     S 1
|112>      1    0.04 1.0
|113>     S 1
|114>      1    0.02 1.0
|115>     S 1
|116>      1    0.01 1.0
|117>   end
|118> end
|119>
|120> * xyz 0 5
|121> 42  0.0 0.0 0.0
|122> *
|123>
|124>
|125>                          ****END OF INPUT****

CARTESIAN COORDINATES (ANGSTROEM)
---------------------------------
  Mo     0.000000    0.000000    0.000000

 Total Charge           Charge          ....    0
 Multiplicity           Mult            ....    5
 Number of Electrons    NEL             ....   14
 Basis Dimension        Dim             ....   33

ORBITAL ENERGIES
----------------

  NO   OCC          E(Eh)            E(eV)
   0   2.0000      -3.060281       -83.2745
   1   2.0000      -1.903594       -51.7994
   2   2.0000      -1.902806       -51.7780
   3   2.0000      -1.901470       -51.7416
   4   2.0000      -0.367899       -10.0111
   5   0.8000      -0.405136       -11.0243
   6   0.8000      -0.402828       -10.9615
   7   0.8000      -0.401234       -10.9181
   8   0.8000      -0.302575        -8.2335
   9   0.8000      -0.167683        -4.5629
  10   0.0000      -0.023398        -0.6367
  11   0.0000      -0.022798        -0.6204
  12   0.0000      -0.045971        -1.2509
  13   0.0000       0.097349         2.6490
  14   0.0000       0.136714         3.7202

CleanUpVectors: The p-vectors have cracked symmetry
CleanUpVectors: The p-vectors have cracked symmetry
CleanUpVectors: The p-vectors have cracked symmetry
CleanUpVectors: The d-vectors have cracked symmetry at i=4
CleanUpVectors: The d-vectors have cracked symmetry at i=6
CleanUpVectors: The d-vectors have cracked symmetry at i=7
CleanUpVectors: The d-vectors have cracked symmetry at i=8
CleanUpVectors: The p-vectors have cracked symmetry
CleanUpVectors: The p-vectors have cracked symmetry
CleanUpVectors: The p-vectors have cracked symmetry
CleanUpVectors: The d-vectors have cracked symmetry at i=12
CleanUpVectors: The p-vectors have cracked symmetry
CleanUpVectors: The p-vectors have cracked symmetry
CleanUpVectors: The p-vectors have cracked symmetry
CleanUpVectors: The d-vectors have cracked symmetry at i=17
CleanUpVectors: The d-vectors have cracked symmetry at i=18
CleanUpVectors: The d-vectors have cracked symmetry at i=19
CleanUpVectors: The d-vectors have cracked symmetry at i=20
CleanUpVectors: The d-vectors have cracked symmetry at i=21
CleanUpVectors: The p-vectors have cracked symmetry
CleanUpVectors: The p-vectors have cracked symmetry
CleanUpVectors: The p-vectors have cracked symmetry
CleanUpVectors: The d-vectors have cracked symmetry at i=25
CleanUpVectors: The d-vectors have cracked symmetry at i=26
CleanUpVectors: The d-vectors have cracked symmetry at i=28
--------------------------
ATOM BASIS FOR ELEMENT Mo
--------------------------
 NewGTO Mo
 S 7
    1         14.000000000000        -0.287430303350
    2         12.500000000000         0.423684083485
    3          4.092150180300        -0.621648021149
    4          0.970536025900         0.839712723340
    5          0.442176201700         0.451290082716
    6          0.092915024300         0.013554695419
    7          0.035016314400        -0.003200673268
 P 19
    1          8.893111791500        -0.024372146144
    2          5.468911227000         0.081991413249
    3          1.354847300700        -0.161270953416
    4          0.654948674600        -0.169992433045
    5          8.893111791500        -0.063789665190
    6          5.468911227000         0.214597629959
    7          1.354847300700        -0.422097424755
    8          0.654948674600        -0.444924313376
    9          8.893111791500        -0.021492842046
   10          5.468911227000         0.072305019165
   11          1.354847300700        -0.142218543570
   12          0.654948674600        -0.149909675199
   13          0.304281974700        -0.058456515109
   14          0.304281974700        -0.152999309329
   15          0.304281974700        -0.051550513374
   16          0.100000000000        -0.002965994667
   17          0.100000000000        -0.007762952250
   18          0.100000000000        -0.002615594642
   19          0.033000000000         0.000163703708
 D 19
    1         14.000000000000         0.000006529455
    2         12.500000000000        -0.000010779647
    3          4.092150180300         0.000052623285
    4          0.970536025900        -0.000369469055
    5          0.442176201700        -0.001110282182
    6          0.092915024300         0.010863533164
    7          0.035016314400         0.020548371027
    8          5.004444549700        -0.011314805835
    9          1.773682332400         0.109852868545
   10          0.769505917000         0.229211126736
   11          5.004444549700         0.009111848357
   12          1.773682332400        -0.088464856959
   13          0.769505917000        -0.184584433786
   14          5.004444549700         0.010909599282
   15          1.773682332400        -0.105918810564
   16          0.769505917000        -0.221002603150
   17          5.004444549700         0.009177922851
   18          1.773682332400        -0.089106359149
   19          0.769505917000        -0.185922946305
 D 19
    1         14.000000000000        -0.000167092620
    2         12.500000000000         0.000275857558
    3          4.092150180300        -0.001285782638
    4          0.970536025900         0.007844895991
    5          0.442176201700         0.023616919633
    6          0.092915024300        -0.184709131275
    7          0.035016314400        -0.337447107356
    8          5.004444549700         0.005606871349
    9          1.773682332400        -0.054435834805
   10          0.769505917000        -0.113581913660
   11          5.004444549700         0.005889671532
   12          1.773682332400        -0.057181477258
   13          0.769505917000        -0.119310774533
   14          5.004444549700        -0.010848172536
   15          1.773682332400         0.105322432301
   16          0.769505917000         0.219758242986
   17          5.004444549700         0.009112287366
   18          1.773682332400        -0.088469119201
   19          0.769505917000        -0.184593327074
 P 19
    1          8.893111791500        -0.010771990421
    2          5.468911227000         0.036238528723
    3          1.354847300700        -0.071278464975
    4          0.654948674600        -0.075133180701
    5          8.893111791500         0.002088140922
    6          5.468911227000        -0.007024807098
    7          1.354847300700         0.013817268094
    8          0.654948674600         0.014564501366
    9          8.893111791500         0.006017571536
   10          5.468911227000        -0.020243978174
   11          1.354847300700         0.039818385020
   12          0.654948674600         0.041971750064
   13          0.304281974700         0.004568098591
   14          0.304281974700        -0.000885521917
   15          0.304281974700        -0.002551883077
   16          0.100000000000         0.029634739293
   17          0.100000000000        -0.005744668293
   18          0.100000000000        -0.016554894378
   19          0.033000000000         0.842814851675
 P 19
    1          8.893111791500        -0.006904954071
    2          5.468911227000         0.023229260951
    3          1.354847300700        -0.045690212087
    4          0.654948674600        -0.048161123591
    5          8.893111791500        -0.018072462957
    6          5.468911227000         0.060798370809
    7          1.354847300700        -0.119585830248
    8          0.654948674600        -0.126052992253
    9          8.893111791500        -0.006089208817
   10          5.468911227000         0.020484976313
   11          1.354847300700        -0.040292410264
   12          0.654948674600        -0.042471410437
   13          0.304281974700        -0.117349748807
   14          0.304281974700        -0.307141650242
   15          0.304281974700        -0.103486151789
   16          0.100000000000         0.579212881535
   17          0.100000000000         1.515984500057
   18          0.100000000000         0.510785176672
   19          0.033000000000        -0.374404545761
 D 19
    1          5.004444549700         0.002014303159
    2          1.773682332400        -0.019556409840
    3          0.769505917000        -0.040805003945
    4          5.004444549700         0.001746377463
    5          1.773682332400        -0.016955180374
    6          0.769505917000        -0.035377464868
    7          5.004444549700         0.003557593400
    8          1.773682332400        -0.034539862703
    9          0.769505917000        -0.072068403424
   10          5.004444549700        -0.005628747480
   11          1.773682332400         0.054648225165
   12          0.769505917000         0.114025072172
   13          5.004444549700         0.005482942783
   14          1.773682332400        -0.053232640621
   15          0.769505917000        -0.111071414861
   16          0.315308789400        -0.128429817569
   17          0.315308789400        -0.111347161373
   18          0.315308789400        -0.226828354597
   19          0.315308789400         0.358882926150
 P 19
    1          8.893111791500        -0.044335164853
    2          5.468911227000         0.149149886159
    3          1.354847300700        -0.293366626939
    4          0.654948674600        -0.309231796745
    5          8.893111791500         0.049462544196
    6          5.468911227000        -0.166399129459
    7          1.354847300700         0.327294593324
    8          0.654948674600         0.344994576290
    9          8.893111791500        -0.096527765484
   10          5.468911227000         0.324733319047
   11          1.354847300700        -0.638726055491
   12          0.654948674600        -0.673268148555
   13          0.304281974700         0.891730326600
   14          0.304281974700        -0.994859291404
   15          0.304281974700         1.941500299506
   16          0.100000000000        -0.564516952752
   17          0.100000000000         0.629803561508
   18          0.100000000000        -1.229082156501
   19          0.033000000000         0.185593796783
 D 19
    1          5.004444549700         0.009720406158
    2          1.773682332400        -0.094373205818
    3          0.769505917000        -0.196912371300
    4          5.004444549700         0.008427479331
    5          1.773682332400        -0.081820474219
    6          0.769505917000        -0.170720740698
    7          5.004444549700         0.017167849153
    8          1.773682332400        -0.166678730826
    9          0.769505917000        -0.347779900531
   10          5.004444549700        -0.027162600331
   11          1.773682332400         0.263715489857
   12          0.769505917000         0.550249851174
   13          5.004444549700         0.026458991805
   14          1.773682332400        -0.256884315198
   15          0.769505917000        -0.535996411448
   16          0.315308789400         0.365348776249
   17          0.315308789400         0.316753149042
   18          0.315308789400         0.645266522486
   19          0.315308789400        -1.020926762654
 end
  // -----------------------------------------------
  // The basis set
  // -----------------------------------------------
  BAS[ATNO] = new BFNGauss[NSH];
  // Basis function   1 L = s
  InitBFNGauss(BAS[ATNO][  0]);
  BAS[ATNO][  0].l  = 0;
  BAS[ATNO][  0].ng = 7;
  BAS[ATNO][  0].a[  0] =        14.000000000000;     BAS[ATNO][  0].d[  0] =        -0.287430303350;
  BAS[ATNO][  0].a[  1] =        12.500000000000;     BAS[ATNO][  0].d[  1] =         0.423684083485;
  BAS[ATNO][  0].a[  2] =         4.092150180300;     BAS[ATNO][  0].d[  2] =        -0.621648021149;
  BAS[ATNO][  0].a[  3] =         0.970536025900;     BAS[ATNO][  0].d[  3] =         0.839712723340;
  BAS[ATNO][  0].a[  4] =         0.442176201700;     BAS[ATNO][  0].d[  4] =         0.451290082716;
  BAS[ATNO][  0].a[  5] =         0.092915024300;     BAS[ATNO][  0].d[  5] =         0.013554695419;
  BAS[ATNO][  0].a[  6] =         0.035016314400;     BAS[ATNO][  0].d[  6] =        -0.003200673268;

FINAL SINGLE POINT ENERGY       -67.358245089318

DIPOLE MOMENT
-------------
                                X             Y             Z
Electronic contribution:     -0.00000       0.00000       0.00000
Nuclear contribution   :      0.00000       0.00000       0.00000
                        -----------------------------------------
Total Dipole Moment    :     -0.00000       0.00000       0.00000
                        -----------------------------------------
Magnitude (a.u.)       :      0.00000
Magnitude (Debye)      :      0.00000

Rotational constants in cm-1:     0.000000     0.000000     0.000000
Rotational constants in MHz :     0.000000     0.000000     0.000000

                             ****ORCA TERMINATED NORMALLY****
TOTAL RUN TIME: 0 days 0 hours 0 minutes 2 seconds 327 msec
