                         Program Version 4.2.1 -  RELEASE  -
|  1> # avogadro generated ORCA input file
|  2> # Basic Mode
|  3> #
|  4> ! wB97X-D3 OPT def2-TZVP def2/J CPCM
|  5> %cpcm
|  6>   epsilon 3
|  7> end
|  8> %pal
|  9>  nprocs 8
| 10> end
| 11>
| 12> * xyz 0 1
| 13>    F        0.77889        0.22952       -0.34405
| 14>    C        2.10920        0.06578       -0.12157
| 15>    C        2.67176       -1.20938        0.09901
| 16>    C        4.06544       -1.25233        0.33067
| 17>    F        4.71041       -2.41821        0.59828
| 18>    C        4.84873       -0.09205        0.31774
| 19>    F        6.12202       -0.27407        0.67080
| 20>    C        1.89674       -2.34000        0.09997
| 21>    C        2.43628       -3.66577        0.32869
| 22>    N        2.79276       -4.75354        0.50253
| 23>    N        0.52651       -2.29056       -0.12235
| 24>    C       -0.61768       -2.33139       -0.29929
| 25>    C        2.89205        1.22535       -0.12474
| 26>    F        2.19770        2.36552       -0.37224
| 27>    C        4.31594        1.19651        0.07053
| 28>    C        5.08969        2.36254        0.04870
| 29>    C        4.30370        3.66354        0.04348
| 30>    N        3.65165        4.74282        0.03916
| 31>    C        6.59344        2.45721        0.05263
| 32>    O        7.36065        1.42814       -0.41315
| 33>    C        8.74606        1.38970       -0.54013
| 34>    C        9.33823        0.12198        0.12775
| 35>    C        9.10551        0.17780        1.64949
| 36>    C        8.78439       -1.15904       -0.56800
| 37>    C        9.13874       -2.48894        0.12088
| 38>    C        8.46839       -3.66964       -0.60176
| 39>    C        8.71889       -4.99316        0.13194
| 40>    C        8.00208       -6.15149       -0.55898
| 41>    O        7.11546        3.53349        0.30694
| 42>    H        9.21968        2.30026       -0.11225
| 43>    H        8.99593        1.36315       -1.62231
| 44>    H       10.44115        0.12721       -0.01700
| 45>    H        8.03440        0.16306        1.91702
| 46>    H        9.54799        1.10958        2.06142
| 47>    H        9.61190       -0.66686        2.15936
| 48>    H        9.15068       -1.17726       -1.61785
| 49>    H        7.68895       -1.11794       -0.63464
| 50>    H        8.74441       -2.47716        1.15887
| 51>    H       10.24112       -2.62522        0.14967
| 52>    H        8.85023       -3.73730       -1.64386
| 53>    H        7.36943       -3.49385       -0.63622
| 54>    H        8.33754       -4.91878        1.17423
| 55>    H        9.80921       -5.20474        0.16465
| 56>    H        6.90546       -5.97073       -0.57895
| 57>    H        8.19240       -7.09376       -0.00290
| 58>    H        8.37014       -6.27059       -1.59987
| 59> *
| 60>
| 61>
| 62>                          ****END OF INPUT****
 Total Charge           Charge          ....    0
 Multiplicity           Mult            ....    1
 Number of Electrons    NEL             ....  210
Dispersion correction           -0.023279069
FINAL SINGLE POINT ENERGY     -1486.374271526632
Dispersion correction            ... done
Dispersion correction           -0.023481034
FINAL SINGLE POINT ENERGY     -1486.426954517132
Dispersion correction            ... done
Dispersion correction           -0.023707933
FINAL SINGLE POINT ENERGY     -1486.441046016420
Dispersion correction            ... done
FINAL SINGLE POINT ENERGY     -1486.444860291380
FINAL SINGLE POINT ENERGY     -1486.447330536111
FINAL SINGLE POINT ENERGY     -1486.448796253168
FINAL SINGLE POINT ENERGY     -1486.449945476029
FINAL SINGLE POINT ENERGY     -1486.450873268287
FINAL SINGLE POINT ENERGY     -1486.451463788118
FINAL SINGLE POINT ENERGY     -1486.451882702180
FINAL SINGLE POINT ENERGY     -1486.453457277692
FINAL SINGLE POINT ENERGY     -1486.453469783956
FINAL SINGLE POINT ENERGY     -1486.453473598749
FINAL SINGLE POINT ENERGY     -1486.453479613351
FINAL SINGLE POINT ENERGY     -1486.453490935445
FINAL SINGLE POINT ENERGY     -1486.453504233828
FINAL SINGLE POINT ENERGY     -1486.453522306558
Dispersion correction            ... done
Dispersion correction           -0.022724720
FINAL SINGLE POINT ENERGY     -1486.453516863175
Dispersion correction            ... done
Dispersion correction           -0.022717401
FINAL SINGLE POINT ENERGY     -1486.453520155266
Dispersion correction            ... done
                    ***********************HURRAY********************

CARTESIAN COORDINATES (ANGSTROEM)
---------------------------------
  F      0.576994    0.614361   -0.735323
  C      1.796993    0.375601   -0.283804
  C      2.060925   -0.884798    0.389241
  C      3.428231   -1.034491    0.855082
  F      3.756700   -2.144293    1.496432
  C      4.362863   -0.097210    0.670802
  F      5.582137   -0.309882    1.141594
  C      1.123536   -1.847298    0.577920
  C      1.369749   -3.102131    1.227872
  N      1.483205   -4.128945    1.727248
  N     -0.179998   -1.726955    0.158843
  C     -1.305771   -1.725249   -0.150721
  C      2.739904    1.307414   -0.470727
  F      2.413032    2.424170   -1.096609
  C      4.114147    1.151739   -0.024419
  C      5.079390    2.070034   -0.232597
  C      4.872878    3.300912   -0.924767
  N      4.818996    4.305178   -1.480092
  C      6.513721    1.966796    0.263377
  O      7.257687    1.314025   -0.600541
  C      8.703162    1.307496   -0.422798
  C      9.212106    0.050981    0.265861
  C      8.921269    0.044036    1.764867
  C      8.725546   -1.209038   -0.455449
  C      9.328162   -2.508471    0.066589
  C      8.921544   -3.722072   -0.760302
  C      9.466948   -5.035749   -0.211269
  C      9.067894   -6.243973   -1.048519
  O      6.866513    2.511005    1.270666
  H      8.983863    2.207982    0.122588
  H      9.079666    1.365434   -1.442669
  H     10.301053    0.109004    0.139230
  H      7.855997   -0.074808    1.967752
  H      9.245453    0.977665    2.227375
  H      9.445769   -0.774339    2.258749
  H      8.956394   -1.112169   -1.522696
  H      7.634365   -1.267026   -0.382361
  H      9.020877   -2.669912    1.104687
  H     10.421792   -2.425978    0.078323
  H      9.263999   -3.590365   -1.793498
  H      7.827169   -3.778166   -0.806526
  H      9.112381   -5.169142    0.816368
  H     10.559105   -4.974758   -0.151366
  H      7.980371   -6.340953   -1.104087
  H      9.462797   -7.170604   -0.627421
  H      9.444737   -6.155659   -2.070604

 Multiplicity           Mult            ....    1
 Number of Electrons    NEL             ....  210
 Basis Dimension        Dim             .... 1001

ORBITAL ENERGIES
----------------

  NO   OCC          E(Eh)            E(eV)
   0   2.0000     -24.856811      -676.3882
   1   2.0000     -24.853345      -676.2939
   2   2.0000     -24.851456      -676.2425
   3   2.0000     -24.848663      -676.1665
   4   2.0000     -19.310184      -525.4568
   5   2.0000     -19.254748      -523.9483
   6   2.0000     -14.499321      -394.5466
   7   2.0000     -14.457303      -393.4032
   8   2.0000     -14.451502      -393.2454
   9   2.0000     -10.451785      -284.4075
  10   2.0000     -10.429834      -283.8102
  11   2.0000     -10.429675      -283.8059
  12   2.0000     -10.428307      -283.7687
  13   2.0000     -10.428213      -283.7661
  14   2.0000     -10.427230      -283.7393
  15   2.0000     -10.391622      -282.7704
  16   2.0000     -10.384658      -282.5809
  17   2.0000     -10.383347      -282.5452
  18   2.0000     -10.357411      -281.8395
  19   2.0000     -10.356164      -281.8055
  20   2.0000     -10.350996      -281.6649
  21   2.0000     -10.341880      -281.4169
  22   2.0000     -10.288085      -279.9530
  23   2.0000     -10.269594      -279.4499
  24   2.0000     -10.265734      -279.3448
  25   2.0000     -10.263984      -279.2972
  26   2.0000     -10.263492      -279.2838
  27   2.0000     -10.261271      -279.2234
  28   2.0000     -10.256235      -279.0863
  29   2.0000      -1.418701       -38.6048
  30   2.0000      -1.414516       -38.4909
  31   2.0000      -1.401233       -38.1295
  32   2.0000      -1.396687       -38.0058
  33   2.0000      -1.262552       -34.3558
  34   2.0000      -1.174459       -31.9587
  35   2.0000      -1.136431       -30.9239
  36   2.0000      -1.067930       -29.0598
  37   2.0000      -1.062440       -28.9105
  38   2.0000      -1.055425       -28.7196
  39   2.0000      -1.007601       -27.4182
  40   2.0000      -0.963521       -26.2187
  41   2.0000      -0.947882       -25.7932
  42   2.0000      -0.934693       -25.4343
  43   2.0000      -0.915707       -24.9177
  44   2.0000      -0.889215       -24.1968
  45   2.0000      -0.864738       -23.5307
  46   2.0000      -0.839123       -22.8337
  47   2.0000      -0.821100       -22.3433
  48   2.0000      -0.808940       -22.0124
  49   2.0000      -0.792751       -21.5718
  50   2.0000      -0.774393       -21.0723
  51   2.0000      -0.746773       -20.3207
  52   2.0000      -0.740665       -20.1545
  53   2.0000      -0.732470       -19.9315
  54   2.0000      -0.719936       -19.5905
  55   2.0000      -0.706115       -19.2144
  56   2.0000      -0.689863       -18.7721
  57   2.0000      -0.686677       -18.6854
  58   2.0000      -0.673328       -18.3222
  59   2.0000      -0.668438       -18.1891
  60   2.0000      -0.665843       -18.1185
  61   2.0000      -0.663744       -18.0614
  62   2.0000      -0.654220       -17.8022
  63   2.0000      -0.643979       -17.5236
  64   2.0000      -0.628057       -17.0903
  65   2.0000      -0.620379       -16.8814
  66   2.0000      -0.616562       -16.7775
  67   2.0000      -0.607732       -16.5372
  68   2.0000      -0.602671       -16.3995
  69   2.0000      -0.588363       -16.0102
  70   2.0000      -0.582781       -15.8583
  71   2.0000      -0.575541       -15.6613
  72   2.0000      -0.566897       -15.4261
  73   2.0000      -0.555168       -15.1069
  74   2.0000      -0.549777       -14.9602
  75   2.0000      -0.548799       -14.9336
  76   2.0000      -0.533969       -14.5300
  77   2.0000      -0.531286       -14.4570
  78   2.0000      -0.526935       -14.3386
  79   2.0000      -0.525075       -14.2880
  80   2.0000      -0.512634       -13.9495
  81   2.0000      -0.511290       -13.9129
  82   2.0000      -0.502968       -13.6865
  83   2.0000      -0.498193       -13.5565
  84   2.0000      -0.493456       -13.4276
  85   2.0000      -0.489530       -13.3208
  86   2.0000      -0.487866       -13.2755
  87   2.0000      -0.485421       -13.2090
  88   2.0000      -0.478036       -13.0080
  89   2.0000      -0.471194       -12.8219
  90   2.0000      -0.469288       -12.7700
  91   2.0000      -0.463615       -12.6156
  92   2.0000      -0.457167       -12.4402
  93   2.0000      -0.446281       -12.1439
  94   2.0000      -0.443300       -12.0628
  95   2.0000      -0.439638       -11.9632
  96   2.0000      -0.437329       -11.9003
  97   2.0000      -0.422615       -11.4999
  98   2.0000      -0.419271       -11.4089
  99   2.0000      -0.413822       -11.2607
 100   2.0000      -0.413436       -11.2502
 101   2.0000      -0.410258       -11.1637
 102   2.0000      -0.397187       -10.8080
 103   2.0000      -0.386558       -10.5188
 104   2.0000      -0.335640        -9.1332
 105   0.0000      -0.098124        -2.6701
 106   0.0000       0.020132         0.5478
 107   0.0000       0.044486         1.2105
 108   0.0000       0.045999         1.2517
 109   0.0000       0.049888         1.3575

MULLIKEN ATOMIC CHARGES
-----------------------
   0 F :   -0.165874
   1 C :    0.245705
   2 C :   -0.145152
   3 C :    0.229139
   4 F :   -0.166988
   5 C :    0.312799
   6 F :   -0.178096
   7 C :    0.416811
   8 C :   -0.229762
   9 N :   -0.031773
  10 N :   -0.114901
  11 C :   -0.117112
  12 C :    0.255568
  13 F :   -0.162571
  14 C :   -0.158479
  15 C :    0.315874
  16 C :   -0.218971
  17 N :   -0.044140
  18 C :    0.261198
  19 O :   -0.236322
  20 C :   -0.111229
  21 C :    0.011518
  22 C :   -0.427736
  23 C :   -0.282971
  24 C :   -0.222364
  25 C :   -0.225369
  26 C :   -0.173639
  27 C :   -0.371445
  28 O :   -0.341893
  29 H :    0.168690
  30 H :    0.159901
  31 H :    0.104277
  32 H :    0.123647
  33 H :    0.140831
  34 H :    0.145101
  35 H :    0.117958
  36 H :    0.119092
  37 H :    0.114745
  38 H :    0.110239
  39 H :    0.103606
  40 H :    0.103885
  41 H :    0.101250
  42 H :    0.101511
  43 H :    0.119507
  44 H :    0.126508
  45 H :    0.117429
Sum of atomic charges:   -0.0000000

LOEWDIN ATOMIC CHARGES
----------------------
   0 F :    0.257740
   1 C :   -0.201172
   2 C :   -0.027785
   3 C :   -0.198385
   4 F :    0.264965
   5 C :   -0.194980
   6 F :    0.263730
   7 C :   -0.145343
   8 C :   -0.135641
   9 N :    0.080830
  10 N :    0.226527
  11 C :   -0.155851
  12 C :   -0.194031
  13 F :    0.268554
  14 C :   -0.039607
  15 C :   -0.040984
  16 C :   -0.141161
  17 N :    0.075374
  18 C :   -0.472150
  19 O :    0.305157
  20 C :   -0.224562
  21 C :   -0.293407
  22 C :   -0.284645
  23 C :   -0.246983
  24 C :   -0.267733
  25 C :   -0.273307
  26 C :   -0.299067
  27 C :   -0.318126
  28 O :    0.133949
  29 H :    0.141645
  30 H :    0.142227
  31 H :    0.167389
  32 H :    0.120908
  33 H :    0.126194
  34 H :    0.124459
  35 H :    0.143182
  36 H :    0.137563
  37 H :    0.138099
  38 H :    0.138332
  39 H :    0.136194
  40 H :    0.136701
  41 H :    0.134235
  42 H :    0.133982
  43 H :    0.119136
  44 H :    0.118849
  45 H :    0.118999

  Mayer bond orders larger than 0.100000
B(  0-F ,  1-C ) :   1.0510 B(  1-C ,  2-C ) :   1.0379 B(  1-C , 12-C ) :   1.7384
B(  2-C ,  3-C ) :   1.0867 B(  2-C ,  7-C ) :   1.5917 B(  3-C ,  4-F ) :   1.0153
B(  3-C ,  5-C ) :   1.7461 B(  5-C ,  6-F ) :   0.9453 B(  5-C , 14-C ) :   1.0384
B(  7-C ,  8-C ) :   0.9538 B(  7-C , 10-N ) :   1.0021 B(  8-C ,  9-N ) :   2.9961
B( 10-N , 11-C ) :   2.3895 B( 12-C , 13-F ) :   1.0189 B( 12-C , 14-C ) :   1.0758
B( 14-C , 15-C ) :   1.6520 B( 15-C , 16-C ) :   0.9499 B( 15-C , 18-C ) :   0.8859
B( 16-C , 17-N ) :   2.9787 B( 18-C , 19-O ) :   1.2615 B( 18-C , 28-O ) :   2.0073
B( 19-O , 20-C ) :   0.8173 B( 20-C , 21-C ) :   0.9930 B( 20-C , 29-H ) :   0.9775
B( 20-C , 30-H ) :   0.9643 B( 21-C , 22-C ) :   0.9529 B( 21-C , 23-C ) :   0.9593
B( 21-C , 31-H ) :   0.9607 B( 22-C , 32-H ) :   0.9614 B( 22-C , 33-H ) :   0.9785
B( 22-C , 34-H ) :   0.9776 B( 23-C , 24-C ) :   0.9698 B( 23-C , 35-H ) :   0.9741
B( 23-C , 36-H ) :   0.9701 B( 24-C , 25-C ) :   0.9967 B( 24-C , 37-H ) :   0.9722
B( 24-C , 38-H ) :   0.9668 B( 25-C , 26-C ) :   0.9904 B( 25-C , 39-H ) :   0.9680
B( 25-C , 40-H ) :   0.9685 B( 26-C , 27-C ) :   0.9806 B( 26-C , 41-H ) :   0.9711
B( 26-C , 42-H ) :   0.9735 B( 27-C , 43-H ) :   0.9788 B( 27-C , 44-H ) :   0.9823
B( 27-C , 45-H ) :   0.9774

Dispersion correction           -0.022717442
FINAL SINGLE POINT ENERGY     -1486.453521345950

DIPOLE MOMENT
-------------
                                X             Y             Z
Electronic contribution:    -71.34436      32.89031       2.85563
Nuclear contribution   :     73.37271     -33.35813      -3.16565
                        -----------------------------------------
Total Dipole Moment    :      2.02835      -0.46782      -0.31002
                        -----------------------------------------
Magnitude (a.u.)       :      2.10456
Magnitude (Debye)      :      5.34937

Rotational constants in cm-1:     0.005941     0.003610     0.002456
Rotational constants in MHz :   178.118064   108.238469    73.618343

                             ****ORCA TERMINATED NORMALLY****
TOTAL RUN TIME: 1 days 16 hours 37 minutes 45 seconds 827 msec
