                         Program Version 4.2.1 -  RELEASE  -
|  1> # avogadro generated ORCA input file
|  2> # Basic Mode
|  3> #
|  4> ! wB97X-D3 OPT def2-TZVP def2/J CPCM
|  5> %cpcm
|  6>   epsilon 3
|  7> end
|  8> %pal
|  9>  nprocs 4
| 10> end
| 11>
| 12> * xyz 0 1
| 13>    C        0.37510        4.98468        0.81812
| 14>    C        0.06008        3.63407        0.62128
| 15>    C       -0.63676        5.90867        1.09641
| 16>    C       -1.27259        3.20203        0.70248
| 17>    C       -1.96526        5.48292        1.17821
| 18>    C       -2.27886        4.13409        0.98152
| 19>   Zn       -1.97066        1.38958        0.47055
| 20>    C       -1.14090       -0.33693        0.07470
| 21>    C        0.21830       -0.61757       -0.13290
| 22>    C        0.63231       -1.92717       -0.40797
| 23>    C       -2.07374       -1.37805        0.00367
| 24>    C       -1.66127       -2.68604       -0.27094
| 25>    C       -0.30671       -2.96089       -0.47699
| 26>    F        1.66457        5.39811        0.73876
| 27>    F        1.05485        2.76461        0.35442
| 28>    F       -0.32961        7.21599        1.28668
| 29>    F       -2.94937        6.37642        1.44798
| 30>    F       -3.56705        3.72000        1.06061
| 31>    F       -3.38731       -1.11029        0.20369
| 32>    F       -2.57492       -3.68627       -0.33714
| 33>    F        0.09625       -4.22825       -0.74346
| 34>    F        1.94710       -2.19413       -0.60799
| 35>    F        1.14435        0.35992       -0.07208
| 36> *
| 37>
| 38>
| 39>                          ****END OF INPUT****
 Total Charge           Charge          ....    0
 Multiplicity           Mult            ....    1
 Number of Electrons    NEL             ....  192
 Basis Dimension        Dim             ....  730

ORBITAL ENERGIES
----------------

  NO   OCC          E(Eh)            E(eV)
   0   2.0000    -347.392627     -9453.0340
   1   2.0000     -42.372857     -1153.0241
   2   2.0000     -37.338940     -1016.0442
   3   2.0000     -37.337939     -1016.0170
   4   2.0000     -37.335162     -1015.9414
   5   2.0000     -24.832113      -675.7161
   6   2.0000     -24.832105      -675.7159
   7   2.0000     -24.831041      -675.6870
   8   2.0000     -24.830923      -675.6838
   9   2.0000     -24.824882      -675.5194
  10   2.0000     -24.824698      -675.5144
  11   2.0000     -24.824353      -675.5050
  12   2.0000     -24.824336      -675.5045
  13   2.0000     -24.819001      -675.3593
  14   2.0000     -24.818841      -675.3550
  15   2.0000     -10.410869      -283.2941
  16   2.0000     -10.410847      -283.2935
  17   2.0000     -10.403858      -283.1034
  18   2.0000     -10.403798      -283.1017
  19   2.0000     -10.403155      -283.0842
  20   2.0000     -10.403083      -283.0823
  21   2.0000     -10.402450      -283.0651
  22   2.0000     -10.402375      -283.0630
  23   2.0000     -10.402323      -283.0616
  24   2.0000     -10.402302      -283.0610
  25   2.0000     -10.309177      -280.5270
  26   2.0000     -10.309136      -280.5259
  27   2.0000      -4.984373      -135.6317
  28   2.0000      -3.374354       -91.8208
  29   2.0000      -3.373166       -91.7885
  30   2.0000      -3.367199       -91.6261
  31   2.0000      -1.381266       -37.5862
  32   2.0000      -1.381146       -37.5829
  33   2.0000      -1.376762       -37.4636
  34   2.0000      -1.376324       -37.4517
  35   2.0000      -1.371235       -37.3132
  36   2.0000      -1.368702       -37.2443
  37   2.0000      -1.362320       -37.0706
  38   2.0000      -1.361086       -37.0370
  39   2.0000      -1.357751       -36.9463
  40   2.0000      -1.355985       -36.8982
  41   2.0000      -1.019494       -27.7418
  42   2.0000      -1.018927       -27.7264
  43   2.0000      -0.900613       -24.5069
  44   2.0000      -0.899563       -24.4784
  45   2.0000      -0.899379       -24.4733
  46   2.0000      -0.896900       -24.4059
  47   2.0000      -0.783342       -21.3158
  48   2.0000      -0.777973       -21.1697
  49   2.0000      -0.777167       -21.1478
  50   2.0000      -0.775553       -21.1039
  51   2.0000      -0.711813       -19.3694
  52   2.0000      -0.705314       -19.1926
  53   2.0000      -0.700357       -19.0577
  54   2.0000      -0.698182       -18.9985
  55   2.0000      -0.687777       -18.7154
  56   2.0000      -0.682355       -18.5678
  57   2.0000      -0.655701       -17.8425
  58   2.0000      -0.652800       -17.7636
  59   2.0000      -0.652664       -17.7599
  60   2.0000      -0.651191       -17.7198
  61   2.0000      -0.649084       -17.6625
  62   2.0000      -0.648937       -17.6585
  63   2.0000      -0.648737       -17.6530
  64   2.0000      -0.644911       -17.5489
  65   2.0000      -0.643525       -17.5112
  66   2.0000      -0.634984       -17.2788
  67   2.0000      -0.632569       -17.2131
  68   2.0000      -0.623658       -16.9706
  69   2.0000      -0.614113       -16.7109
  70   2.0000      -0.608349       -16.5540
  71   2.0000      -0.607079       -16.5195
  72   2.0000      -0.598232       -16.2787
  73   2.0000      -0.594890       -16.1878
  74   2.0000      -0.579611       -15.7720
  75   2.0000      -0.577803       -15.7228
  76   2.0000      -0.573175       -15.5969
  77   2.0000      -0.571557       -15.5529
  78   2.0000      -0.560453       -15.2507
  79   2.0000      -0.554122       -15.0784
  80   2.0000      -0.549614       -14.9558
  81   2.0000      -0.548165       -14.9163
  82   2.0000      -0.537058       -14.6141
  83   2.0000      -0.529793       -14.4164
  84   2.0000      -0.524019       -14.2593
  85   2.0000      -0.518232       -14.1018
  86   2.0000      -0.494322       -13.4512
  87   2.0000      -0.488759       -13.2998
  88   2.0000      -0.467694       -12.7266
  89   2.0000      -0.466491       -12.6939
  90   2.0000      -0.464839       -12.6489
  91   2.0000      -0.392584       -10.6828
  92   2.0000      -0.364521        -9.9191
  93   2.0000      -0.357057        -9.7160
  94   2.0000      -0.351181        -9.5561
  95   2.0000      -0.350302        -9.5322
  96   0.0000       0.001109         0.0302
  97   0.0000       0.002352         0.0640
  98   0.0000       0.043058         1.1717
  99   0.0000       0.048129         1.3096
 100   0.0000       0.049527         1.3477

MULLIKEN ATOMIC CHARGES
-----------------------
   0 C :    0.169450
   1 C :    0.198856
   2 C :    0.177711
   3 C :   -0.104429
   4 C :    0.143066
   5 C :    0.199075
   6 Zn:    0.343155
   7 C :   -0.109813
   8 C :    0.203983
   9 C :    0.168923
  10 C :    0.199120
  11 C :    0.150930
  12 C :    0.173192
  13 F :   -0.188316
  14 F :   -0.187857
  15 F :   -0.181240
  16 F :   -0.190444
  17 F :   -0.207701
  18 F :   -0.209704
  19 F :   -0.190833
  20 F :   -0.180527
  21 F :   -0.188672
  22 F :   -0.187926
Sum of atomic charges:   -0.0000000

LOEWDIN ATOMIC CHARGES
----------------------
   0 C :   -0.206154
   1 C :   -0.236691
   2 C :   -0.196607
   3 C :   -0.199293
   4 C :   -0.209773
   5 C :   -0.244800
   6 Zn:    0.658467
   7 C :   -0.199470
   8 C :   -0.236542
   9 C :   -0.206423
  10 C :   -0.244801
  11 C :   -0.209557
  12 C :   -0.196819
  13 F :    0.186085
  14 F :    0.202873
  15 F :    0.193776
  16 F :    0.183748
  17 F :    0.197565
  18 F :    0.197376
  19 F :    0.183896
  20 F :    0.193974
  21 F :    0.186083
  22 F :    0.203086

  Mayer bond orders larger than 0.100000
B(  0-C ,  1-C ) :   1.3930 B(  0-C ,  2-C ) :   1.3817 B(  0-C , 13-F ) :   1.0399
B(  1-C ,  3-C ) :   1.2707 B(  1-C , 14-F ) :   1.0274 B(  2-C ,  4-C ) :   1.3925
B(  2-C , 15-F ) :   1.0453 B(  3-C ,  5-C ) :   1.4018 B(  3-C ,  6-Zn) :   0.8847
B(  4-C ,  5-C ) :   1.3829 B(  4-C , 16-F ) :   1.0373 B(  5-C , 17-F ) :   0.9613
B(  6-Zn,  7-C ) :   0.8886 B(  7-C ,  8-C ) :   1.2692 B(  7-C , 10-C ) :   1.3975
B(  8-C ,  9-C ) :   1.3924 B(  8-C , 22-F ) :   1.0276 B(  9-C , 12-C ) :   1.3826
B(  9-C , 21-F ) :   1.0401 B( 10-C , 11-C ) :   1.3845 B( 10-C , 18-F ) :   0.9578
B( 11-C , 12-C ) :   1.3924 B( 11-C , 19-F ) :   1.0353 B( 12-C , 20-F ) :   1.0481

Dispersion correction           -0.008974571
FINAL SINGLE POINT ENERGY     -3235.275619697865
Dispersion correction            ... done
Dispersion correction           -0.008858195
FINAL SINGLE POINT ENERGY     -3235.291016799998
Dispersion correction            ... done
Dispersion correction           -0.008775634
FINAL SINGLE POINT ENERGY     -3235.295869735359
Dispersion correction            ... done
FINAL SINGLE POINT ENERGY     -3235.300748676546
FINAL SINGLE POINT ENERGY     -3235.296349725762
FINAL SINGLE POINT ENERGY     -3235.300699268510
FINAL SINGLE POINT ENERGY     -3235.304218530695
FINAL SINGLE POINT ENERGY     -3235.305559503464
FINAL SINGLE POINT ENERGY     -3235.306654367129
FINAL SINGLE POINT ENERGY     -3235.304531556873
FINAL SINGLE POINT ENERGY     -3235.311851203761
FINAL SINGLE POINT ENERGY     -3235.312784445227
FINAL SINGLE POINT ENERGY     -3235.312757728109
FINAL SINGLE POINT ENERGY     -3235.312079624421
FINAL SINGLE POINT ENERGY     -3235.312071241508
FINAL SINGLE POINT ENERGY     -3235.312076662544
FINAL SINGLE POINT ENERGY     -3235.312081191211
Dispersion correction           -0.008321148
FINAL SINGLE POINT ENERGY     -3235.312099531086
Dispersion correction            ... done
Dispersion correction           -0.008321823
FINAL SINGLE POINT ENERGY     -3235.312840553038
Dispersion correction            ... done

CARTESIAN COORDINATES (ANGSTROEM)
---------------------------------
  C     -1.508462    5.225255    2.105297
  C     -1.444347    3.868536    1.845547
  C     -0.939711    6.105255    1.200197
  C     -0.834442    3.347822    0.721283
  C     -0.321600    5.625624    0.058222
  C     -0.280456    4.259556   -0.154435
  Zn    -0.771299    1.445905    0.389835
  C     -0.741714   -0.449391    0.028434
  C     -1.513609   -0.974335   -0.988905
  C     -1.537731   -2.322760   -1.297412
  C      0.020966   -1.347146    0.749130
  C      0.025520   -2.703170    0.484132
  C     -0.758828   -3.187788   -0.549075
  F     -2.099846    5.695246    3.199405
  F     -2.006740    3.037767    2.737443
  F     -0.988416    7.410566    1.426795
  F      0.220405    6.478766   -0.806656
  F      0.325597    3.821249   -1.268936
  F      0.799283   -0.905257    1.749630
  F      0.767197   -3.552530    1.190378
  F     -0.763225   -4.484739   -0.820176
  F     -2.289393   -2.793826   -2.286169
  F     -2.281251   -0.155104   -1.724354

Dispersion correction           -0.008321654
FINAL SINGLE POINT ENERGY     -3235.312846211126
Dispersion correction            ... done

DIPOLE MOMENT
-------------
                                X             Y             Z
Electronic contribution:      0.11617      -0.03397       0.11614
Nuclear contribution   :     -0.09380       0.01861      -0.08443
                        -----------------------------------------
Total Dipole Moment    :      0.02237      -0.01536       0.03171
                        -----------------------------------------
Magnitude (a.u.)       :      0.04174
Magnitude (Debye)      :      0.10609

Rotational constants in cm-1:     0.017302     0.003086     0.002910
Rotational constants in MHz :   518.688510    92.507269    87.253088

                             ****ORCA TERMINATED NORMALLY****
TOTAL RUN TIME: 2 days 18 hours 13 minutes 58 seconds 559 msec
