                         Program Version 4.2.1 -  RELEASE  -
|  1> # avogadro generated ORCA input file
|  2> # Basic Mode
|  3> #
|  4> ! wB97X-D3 OPT def2-TZVP def2/J CPCM
|  5> %cpcm
|  6>   epsilon 3
|  7> end
|  8> %pal
|  9>  nprocs 4
| 10> end
| 11>
| 12> * xyz 0 1
| 13>    C        1.05974        2.73732        0.34529
| 14>    C        0.24559        1.47059        0.28125
| 15>    H        0.77151        3.33624        1.23230
| 16>    H        0.88783        3.33583       -0.57519
| 17>    H        2.14879        2.52513        0.40542
| 18>    C       -1.91190        2.82305        0.12976
| 19>    C       -1.17601        1.50993        0.17332
| 20>    H       -3.00833        2.67842        0.02939
| 21>    H       -1.56815        3.41321       -0.74704
| 22>    H       -1.71843        3.40048        1.05670
| 23>    C        0.91266        0.22876        0.28417
| 24>    C       -1.90453        0.30285        0.06232
| 25>    C        0.15771       -0.93927        0.14106
| 26>    H        1.99126        0.19236        0.33559
| 27>    C       -1.19994       -0.90376        0.02842
| 28>    H       -2.98075        0.31824       -0.04617
| 29>    N        0.61213       -2.26347       -0.03035
| 30>    N       -1.69275       -2.21050       -0.21338
| 31>    C       -0.52482       -3.02900       -0.54583
| 32>    C       -0.56834       -4.50092       -0.14005
| 33>    H       -0.45047       -3.04197       -1.65557
| 34>    C        2.00622       -2.66003       -0.05432
| 35>    H        2.14616       -3.59625        0.52341
| 36>    H        2.65046       -1.90425        0.43647
| 37>    H        2.33863       -2.79471       -1.10289
| 38>    C       -3.05078       -2.49364       -0.63760
| 39>    H       -3.48953       -1.62893       -1.17418
| 40>    H       -3.68052       -2.71339        0.25073
| 41>    H       -3.06825       -3.36671       -1.32205
| 42>    C        0.44325       -5.34534       -0.64372
| 43>    C       -1.61315       -6.46535        0.86374
| 44>    C        0.43070       -6.71765       -0.39647
| 45>    H        1.23897       -4.94697       -1.25811
| 46>    C       -0.59971       -7.28009        0.35278
| 47>    H        1.21427       -7.34520       -0.80267
| 48>    H       -0.61458       -8.34836        0.52863
| 49>    C       -1.60115       -5.08287        0.62451
| 50>    H       -2.41599       -6.91144        1.43631
| 51>    H       -2.40822       -4.49179        1.02606
| 52> *
| 53>
| 54>
| 55>                          ****END OF INPUT****
 Total Charge           Charge          ....    0
 Multiplicity           Mult            ....    1
 Number of Electrons    NEL             ....  136
Dispersion correction           -0.017239535
FINAL SINGLE POINT ENERGY      -769.394422035669
Dispersion correction            ... done
Dispersion correction           -0.017385721
FINAL SINGLE POINT ENERGY      -769.407119267367
Dispersion correction            ... done
Dispersion correction           -0.017504091
FINAL SINGLE POINT ENERGY      -769.411705590441
Dispersion correction            ... done
FINAL SINGLE POINT ENERGY      -769.414059313982
FINAL SINGLE POINT ENERGY      -769.415767933694
FINAL SINGLE POINT ENERGY      -769.417008455617
FINAL SINGLE POINT ENERGY      -769.418011490892
FINAL SINGLE POINT ENERGY      -769.418875214560
FINAL SINGLE POINT ENERGY      -769.419601363311
FINAL SINGLE POINT ENERGY      -769.418939158290
FINAL SINGLE POINT ENERGY      -769.422532643379
FINAL SINGLE POINT ENERGY      -769.422591768529
FINAL SINGLE POINT ENERGY      -769.422592683454
FINAL SINGLE POINT ENERGY      -769.422607276847
FINAL SINGLE POINT ENERGY      -769.422623581340
FINAL SINGLE POINT ENERGY      -769.422655159097
FINAL SINGLE POINT ENERGY      -769.422684251778
Dispersion correction            ... done
Dispersion correction           -0.017593357
FINAL SINGLE POINT ENERGY      -769.422705678396
Dispersion correction            ... done
Dispersion correction           -0.017585600
FINAL SINGLE POINT ENERGY      -769.422712067122
Dispersion correction            ... done
                    ***********************HURRAY********************

CARTESIAN COORDINATES (ANGSTROEM)
---------------------------------
  C      0.838344    2.702630    0.734170
  C      0.115529    1.416633    0.433957
  H      0.384020    3.231629    1.576088
  H      0.815370    3.385282   -0.120418
  H      1.882990    2.513751    0.982568
  C     -2.016840    2.711785    0.073836
  C     -1.242388    1.421424    0.117493
  H     -3.059517    2.531415   -0.188885
  H     -1.601850    3.407507   -0.660849
  H     -1.998264    3.222439    1.040325
  C      0.825237    0.206181    0.460955
  C     -1.898081    0.215328   -0.174336
  C      0.167674   -0.969489    0.179986
  H      1.882778    0.210055    0.699799
  C     -1.191252   -0.964538   -0.136349
  H     -2.950859    0.224210   -0.432732
  N      0.616880   -2.294809    0.177686
  N     -1.602862   -2.286490   -0.338115
  C     -0.381144   -3.050876   -0.574912
  C     -0.489604   -4.494460   -0.149096
  H     -0.128390   -3.027119   -1.659432
  C      1.996511   -2.580828   -0.134721
  H      2.184118   -3.646855   -0.002098
  H      2.650415   -2.038823    0.547791
  H      2.255656   -2.301856   -1.166784
  C     -2.709324   -2.563099   -1.221777
  H     -2.490478   -2.282119   -2.262781
  H     -3.591938   -2.017333   -0.890502
  H     -2.943229   -3.627727   -1.188409
  C     -0.302874   -5.511443   -1.072812
  C     -0.897443   -6.141901    1.557533
  C     -0.412750   -6.842763   -0.688811
  H     -0.070295   -5.260316   -2.102755
  C     -0.711005   -7.158489    0.626396
  H     -0.265865   -7.629939   -1.419168
  H     -0.797885   -8.194845    0.930404
  C     -0.787715   -4.817346    1.171194
  H     -1.130698   -6.386751    2.587185
  H     -0.933390   -4.019503    1.890415

 Multiplicity           Mult            ....    1
 Number of Electrons    NEL             ....  136
 Basis Dimension        Dim             ....  709

ORBITAL ENERGIES
----------------

  NO   OCC          E(Eh)            E(eV)
   0   2.0000     -14.432702      -392.7338
   1   2.0000     -14.432652      -392.7324
   2   2.0000     -10.343867      -281.4709
   3   2.0000     -10.299323      -280.2588
   4   2.0000     -10.298774      -280.2439
   5   2.0000     -10.294644      -280.1315
   6   2.0000     -10.294490      -280.1273
   7   2.0000     -10.284960      -279.8680
   8   2.0000     -10.280829      -279.7556
   9   2.0000     -10.280033      -279.7339
  10   2.0000     -10.279522      -279.7200
  11   2.0000     -10.279073      -279.7078
  12   2.0000     -10.277769      -279.6723
  13   2.0000     -10.271429      -279.4998
  14   2.0000     -10.270871      -279.4846
  15   2.0000     -10.265090      -279.3273
  16   2.0000     -10.264905      -279.3223
  17   2.0000     -10.259530      -279.1760
  18   2.0000     -10.259221      -279.1676
  19   2.0000      -1.118730       -30.4422
  20   2.0000      -1.021305       -27.7911
  21   2.0000      -0.985816       -26.8254
  22   2.0000      -0.968065       -26.3424
  23   2.0000      -0.900431       -24.5020
  24   2.0000      -0.873791       -23.7771
  25   2.0000      -0.871867       -23.7247
  26   2.0000      -0.866913       -23.5899
  27   2.0000      -0.840979       -22.8842
  28   2.0000      -0.809976       -22.0406
  29   2.0000      -0.791677       -21.5426
  30   2.0000      -0.771676       -20.9984
  31   2.0000      -0.732744       -19.9390
  32   2.0000      -0.719953       -19.5909
  33   2.0000      -0.696642       -18.9566
  34   2.0000      -0.682321       -18.5669
  35   2.0000      -0.674918       -18.3655
  36   2.0000      -0.628940       -17.1143
  37   2.0000      -0.612017       -16.6538
  38   2.0000      -0.602126       -16.3847
  39   2.0000      -0.583900       -15.8887
  40   2.0000      -0.571024       -15.5383
  41   2.0000      -0.556162       -15.1339
  42   2.0000      -0.546749       -14.8778
  43   2.0000      -0.545612       -14.8469
  44   2.0000      -0.534262       -14.5380
  45   2.0000      -0.528992       -14.3946
  46   2.0000      -0.523655       -14.2494
  47   2.0000      -0.519052       -14.1241
  48   2.0000      -0.516682       -14.0596
  49   2.0000      -0.514194       -13.9919
  50   2.0000      -0.495104       -13.4725
  51   2.0000      -0.487373       -13.2621
  52   2.0000      -0.478115       -13.0102
  53   2.0000      -0.477947       -13.0056
  54   2.0000      -0.472673       -12.8621
  55   2.0000      -0.470943       -12.8150
  56   2.0000      -0.465051       -12.6547
  57   2.0000      -0.461573       -12.5600
  58   2.0000      -0.435646       -11.8545
  59   2.0000      -0.433692       -11.8014
  60   2.0000      -0.433460       -11.7950
  61   2.0000      -0.423877       -11.5343
  62   2.0000      -0.380348       -10.3498
  63   2.0000      -0.366682        -9.9779
  64   2.0000      -0.346239        -9.4216
  65   2.0000      -0.342145        -9.3102
  66   2.0000      -0.306473        -8.3396
  67   2.0000      -0.256123        -6.9695
  68   0.0000       0.054206         1.4750
  69   0.0000       0.061165         1.6644
  70   0.0000       0.076206         2.0737
  71   0.0000       0.090383         2.4594
  72   0.0000       0.120493         3.2788

MULLIKEN ATOMIC CHARGES
-----------------------
   0 C :   -0.395524
   1 C :    0.071254
   2 H :    0.135636
   3 H :    0.135867
   4 H :    0.132211
   5 C :   -0.403980
   6 C :    0.065896
   7 H :    0.133451
   8 H :    0.138362
   9 H :    0.138902
  10 C :   -0.344891
  11 C :   -0.351309
  12 C :    0.081582
  13 H :    0.139645
  14 C :    0.077596
  15 H :    0.139318
  16 N :   -0.120116
  17 N :   -0.115963
  18 C :    0.129740
  19 C :    0.087184
  20 H :    0.096599
  21 C :   -0.311251
  22 H :    0.153506
  23 H :    0.145784
  24 H :    0.120010
  25 C :   -0.324338
  26 H :    0.122503
  27 H :    0.149788
  28 H :    0.156017
  29 C :   -0.188963
  30 C :   -0.172673
  31 C :   -0.153595
  32 H :    0.140526
  33 C :   -0.135025
  34 H :    0.146860
  35 H :    0.153911
  36 C :   -0.265322
  37 H :    0.145925
  38 H :    0.144877
Sum of atomic charges:   -0.0000000

LOEWDIN ATOMIC CHARGES
----------------------
   0 C :   -0.259144
   1 C :   -0.163960
   2 H :    0.128857
   3 H :    0.128400
   4 H :    0.127276
   5 C :   -0.259880
   6 C :   -0.164197
   7 H :    0.127314
   8 H :    0.128810
   9 H :    0.129206
  10 C :   -0.114929
  11 C :   -0.115218
  12 C :   -0.174552
  13 H :    0.151188
  14 C :   -0.174653
  15 H :    0.151144
  16 N :    0.171048
  17 N :    0.171837
  18 C :   -0.222411
  19 C :   -0.141490
  20 H :    0.140413
  21 C :   -0.296884
  22 H :    0.125364
  23 H :    0.123654
  24 H :    0.111121
  25 C :   -0.297687
  26 H :    0.111328
  27 H :    0.124404
  28 H :    0.125664
  29 C :   -0.116725
  30 C :   -0.142464
  31 C :   -0.145875
  32 H :    0.153321
  33 C :   -0.144534
  34 H :    0.150225
  35 H :    0.150245
  36 C :   -0.102228
  37 H :    0.150299
  38 H :    0.155716

  Mayer bond orders larger than 0.100000
B(  0-C ,  1-C ) :   0.9101 B(  0-C ,  2-H ) :   0.9777 B(  0-C ,  3-H ) :   0.9798
B(  0-C ,  4-H ) :   0.9837 B(  1-C ,  6-C ) :   1.4042 B(  1-C , 10-C ) :   1.4077
B(  5-C ,  6-C ) :   0.9064 B(  5-C ,  7-H ) :   0.9848 B(  5-C ,  8-H ) :   0.9761
B(  5-C ,  9-H ) :   0.9796 B(  6-C , 11-C ) :   1.4102 B( 10-C , 12-C ) :   1.4145
B( 10-C , 13-H ) :   0.9365 B( 11-C , 14-C ) :   1.4095 B( 11-C , 15-H ) :   0.9388
B( 12-C , 14-C ) :   1.2708 B( 12-C , 16-N ) :   1.1250 B( 14-C , 17-N ) :   1.1280
B( 16-N , 18-C ) :   0.9945 B( 16-N , 21-C ) :   0.9514 B( 17-N , 18-C ) :   0.9882
B( 17-N , 25-C ) :   0.9491 B( 18-C , 19-C ) :   0.8719 B( 18-C , 20-H ) :   0.9852
B( 19-C , 29-C ) :   1.3419 B( 19-C , 36-C ) :   1.3536 B( 21-C , 22-H ) :   0.9684
B( 21-C , 23-H ) :   0.9679 B( 21-C , 24-H ) :   0.9624 B( 25-C , 26-H ) :   0.9623
B( 25-C , 27-H ) :   0.9680 B( 25-C , 28-H ) :   0.9678 B( 29-C , 31-C ) :   1.4087
B( 29-C , 32-H ) :   0.9827 B( 30-C , 33-C ) :   1.3674 B( 30-C , 36-C ) :   1.4480
B( 30-C , 37-H ) :   0.9877 B( 31-C , 33-C ) :   1.4020 B( 31-C , 34-H ) :   0.9899
B( 33-C , 35-H ) :   0.9793 B( 36-C , 38-H ) :   0.9876

Dispersion correction           -0.017584302
FINAL SINGLE POINT ENERGY      -769.422711844865

DIPOLE MOMENT
-------------
                                X             Y             Z
Electronic contribution:     -0.48435     -10.41766       1.95790
Nuclear contribution   :      0.59904       9.92458      -2.49687
                        -----------------------------------------
Total Dipole Moment    :      0.11469      -0.49308      -0.53896
                        -----------------------------------------
Magnitude (a.u.)       :      0.73944
Magnitude (Debye)      :      1.87950

Rotational constants in cm-1:     0.033410     0.006724     0.006118
Rotational constants in MHz :  1001.592840   201.580102   183.404502

                             ****ORCA TERMINATED NORMALLY****
TOTAL RUN TIME: 1 days 22 hours 16 minutes 5 seconds 426 msec
