                         Program Version 4.2.1 -  RELEASE  -
|  1> # avogadro generated ORCA input file
|  2> # Basic Mode
|  3> #
|  4> ! wB97X-D3 OPT def2-TZVP def2/J CPCM
|  5> %cpcm
|  6>   epsilon 3
|  7> end
|  8> %pal
|  9>  nprocs 4
| 10> end
| 11>
| 12> * xyz 0 1
| 13>    C        1.91283        6.21445        0.85304
| 14>    C        0.52806        6.17930        1.00804
| 15>    C        2.61408        5.04321        0.56876
| 16>    H        2.44942        7.14903        0.95237
| 17>    C        1.94543        3.81198        0.43345
| 18>    H        3.68839        5.10250        0.45405
| 19>    C       -0.15771        4.96762        0.87810
| 20>    H       -0.00901        7.09359        1.22876
| 21>    C        0.54314        3.78342        0.59163
| 22>    H       -1.23395        4.95278        1.00073
| 23>    H       -0.01185        2.85866        0.49614
| 24>    C        2.74404        2.59096        0.12923
| 25>    O        3.95689        2.68160        0.00383
| 26>    O        2.18816        1.36899       -0.01760
| 27>   Li        1.89969       -0.14228       -0.24560
| 28> *
| 29>
| 30>
| 31>                          ****END OF INPUT****
 Total Charge           Charge          ....    0
 Multiplicity           Mult            ....    1
 Number of Electrons    NEL             ....   66
Dispersion correction           -0.004272707
FINAL SINGLE POINT ENERGY      -427.861861011767
Dispersion correction            ... done
Dispersion correction           -0.004267126
FINAL SINGLE POINT ENERGY      -427.871086338702
Dispersion correction            ... done
Dispersion correction           -0.004246199
FINAL SINGLE POINT ENERGY      -427.874155912857
Dispersion correction            ... done
FINAL SINGLE POINT ENERGY      -427.875133564186
FINAL SINGLE POINT ENERGY      -427.876684020235
FINAL SINGLE POINT ENERGY      -427.877687241783
FINAL SINGLE POINT ENERGY      -427.878300813944
FINAL SINGLE POINT ENERGY      -427.878561056106
FINAL SINGLE POINT ENERGY      -427.878716250599
FINAL SINGLE POINT ENERGY      -427.878848287890
FINAL SINGLE POINT ENERGY      -427.889599407327
FINAL SINGLE POINT ENERGY      -427.889950197447
FINAL SINGLE POINT ENERGY      -427.890218913517
FINAL SINGLE POINT ENERGY      -427.890342968638
FINAL SINGLE POINT ENERGY      -427.890364825176
FINAL SINGLE POINT ENERGY      -427.890373315063
FINAL SINGLE POINT ENERGY      -427.890363705689
Dispersion correction            ... done
Dispersion correction           -0.003835316
FINAL SINGLE POINT ENERGY      -427.890356713366
Dispersion correction            ... done
Dispersion correction           -0.003835068
FINAL SINGLE POINT ENERGY      -427.890355061317
Dispersion correction            ... done
                    ***********************HURRAY********************

CARTESIAN COORDINATES (ANGSTROEM)
---------------------------------
  C      1.981515    6.120675    0.833830
  C      0.607358    6.216565    1.006957
  C      2.560012    4.892930    0.550821
  H      2.602408    7.004523    0.919997
  C      1.768543    3.755394    0.438307
  H      3.630323    4.802159    0.414797
  C     -0.186976    5.083222    0.895894
  H      0.154648    7.175873    1.229461
  C      0.392436    3.856530    0.611074
  H     -1.259527    5.156776    1.032751
  H     -0.213534    2.963885    0.522255
  C      2.396786    2.421379    0.141469
  O      3.648766    2.347516    0.016463
  O      1.655038    1.408830    0.026855
  Li     3.319811    0.449551   -0.306002

 Multiplicity           Mult            ....    1
 Number of Electrons    NEL             ....   66
 Basis Dimension        Dim             ....  323

ORBITAL ENERGIES
----------------

  NO   OCC          E(Eh)            E(eV)
   0   2.0000     -19.187227      -522.1110
   1   2.0000     -19.186538      -522.0922
   2   2.0000     -10.376597      -282.3616
   3   2.0000     -10.278395      -279.6893
   4   2.0000     -10.278077      -279.6807
   5   2.0000     -10.275142      -279.6008
   6   2.0000     -10.275027      -279.5977
   7   2.0000     -10.274528      -279.5841
   8   2.0000     -10.274459      -279.5822
   9   2.0000      -2.065348       -56.2010
  10   2.0000      -1.168208       -31.7886
  11   2.0000      -1.064495       -28.9664
  12   2.0000      -0.977069       -26.5874
  13   2.0000      -0.870543       -23.6887
  14   2.0000      -0.861651       -23.4467
  15   2.0000      -0.733028       -19.9467
  16   2.0000      -0.711404       -19.3583
  17   2.0000      -0.651400       -17.7255
  18   2.0000      -0.602515       -16.3953
  19   2.0000      -0.558641       -15.2014
  20   2.0000      -0.554735       -15.0951
  21   2.0000      -0.535936       -14.5836
  22   2.0000      -0.528706       -14.3868
  23   2.0000      -0.517714       -14.0877
  24   2.0000      -0.516317       -14.0497
  25   2.0000      -0.468039       -12.7360
  26   2.0000      -0.451480       -12.2854
  27   2.0000      -0.430238       -11.7074
  28   2.0000      -0.374463       -10.1896
  29   2.0000      -0.367791       -10.0081
  30   2.0000      -0.357508        -9.7283
  31   2.0000      -0.340290        -9.2598
  32   2.0000      -0.339360        -9.2345
  33   0.0000       0.039039         1.0623
  34   0.0000       0.046107         1.2546
  35   0.0000       0.067778         1.8443
  36   0.0000       0.128376         3.4933
  37   0.0000       0.138643         3.7727

MULLIKEN ATOMIC CHARGES
-----------------------
   0 C :   -0.123962
   1 C :   -0.153586
   2 C :   -0.225011
   3 H :    0.148059
   4 C :    0.093431
   5 H :    0.158062
   6 C :   -0.122647
   7 H :    0.147990
   8 C :   -0.224849
   9 H :    0.151104
  10 H :    0.155027
  11 C :    0.474557
  12 O :   -0.659325
  13 O :   -0.672649
  14 Li:    0.853799
Sum of atomic charges:   -0.0000000

LOEWDIN ATOMIC CHARGES
----------------------
   0 C :   -0.147008
   1 C :   -0.139726
   2 C :   -0.098949
   3 H :    0.149804
   4 C :   -0.128224
   5 H :    0.155701
   6 C :   -0.147294
   7 H :    0.149705
   8 C :   -0.098656
   9 H :    0.150028
  10 H :    0.155601
  11 C :   -0.559670
  12 O :   -0.077340
  13 O :   -0.077904
  14 Li:    0.713932

  Mayer bond orders larger than 0.100000
B(  0-C ,  1-C ) :   1.3895 B(  0-C ,  2-C ) :   1.4165 B(  0-C ,  3-H ) :   0.9858
B(  1-C ,  6-C ) :   1.3845 B(  1-C ,  7-H ) :   0.9806 B(  2-C ,  4-C ) :   1.3814
B(  2-C ,  5-H ) :   0.9609 B(  4-C ,  8-C ) :   1.3827 B(  4-C , 11-C ) :   0.9717
B(  4-C , 12-O ) :  -0.1124 B(  4-C , 13-O ) :  -0.1141 B(  6-C ,  8-C ) :   1.4144
B(  6-C ,  9-H ) :   0.9854 B(  8-C , 10-H ) :   0.9628 B( 11-C , 12-O ) :   1.5801
B( 11-C , 13-O ) :   1.5693 B( 12-O , 14-Li) :   0.1322 B( 13-O , 14-Li) :   0.1332

Dispersion correction           -0.003834662
FINAL SINGLE POINT ENERGY      -427.890354772525

DIPOLE MOMENT
-------------
                                X             Y             Z
Electronic contribution:      5.79006     -12.31651      -2.80498
Nuclear contribution   :     -5.05092      10.73072       2.44205
                        -----------------------------------------
Total Dipole Moment    :      0.73913      -1.58579      -0.36293
                        -----------------------------------------
Magnitude (a.u.)       :      1.78683
Magnitude (Debye)      :      4.54177

Rotational constants in cm-1:     0.133090     0.033385     0.026691
Rotational constants in MHz :  3989.924313  1000.853476   800.177355

                             ****ORCA TERMINATED NORMALLY****
TOTAL RUN TIME: 0 days 3 hours 15 minutes 4 seconds 242 msec
