                         Program Version 4.2.1 -  RELEASE  -
|  1> # avogadro generated ORCA input file
|  2> # Basic Mode
|  3> #
|  4> ! wB97X-D3 OPT def2-TZVP def2/J CPCM
|  5> %cpcm
|  6>   epsilon 3
|  7> end
|  8> %pal
|  9>  nprocs 4
| 10> end
| 11>
| 12> * xyz 0 1
| 13>    N       -7.15047        5.11524       -1.36334
| 14>    C       -6.97600        6.31366       -2.17504
| 15>    H       -5.94034        6.48271       -2.51481
| 16>    H       -7.24325        7.20833       -1.57314
| 17>    H       -7.64148        6.26927       -3.06321
| 18>    C       -8.48863        4.93395       -0.81381
| 19>    H       -8.73464        5.77525       -0.13166
| 20>    H       -8.63051        3.98411       -0.27176
| 21>    H       -9.22811        4.91873       -1.64274
| 22>    C       -6.07411        4.17556       -1.12126
| 23>    C       -6.11161        3.27236       -0.03402
| 24>    C       -4.94347        4.11495       -1.96814
| 25>    C       -5.07233        2.36758        0.19505
| 26>    H       -6.92453        3.25364        0.67326
| 27>    C       -3.90724        3.20741       -1.73493
| 28>    H       -4.84342        4.73979       -2.84073
| 29>    C       -3.94300        2.32557       -0.64089
| 30>    H       -5.14850        1.70414        1.04775
| 31>    H       -3.08621        3.18405       -2.43940
| 32>    C       -2.84727        1.31552       -0.38152
| 33>    C       -3.32418       -0.04329        0.08081
| 34>    C       -1.50622        1.61277       -0.55543
| 35>    C       -1.02054        3.00454       -0.81235
| 36>    C       -0.43807        0.56481       -0.50111
| 37>    C        0.27734        3.29318       -0.97627
| 38>    H       -1.69507        3.84870       -0.82741
| 39>    C        0.86222        0.84586       -0.67492
| 40>    H       -0.67875       -0.48050       -0.36820
| 41>    C        1.34744        2.24344       -0.92642
| 42>    H        0.52118        4.33723       -1.13714
| 43>    H        1.51884       -0.00795       -0.63188
| 44>    N        2.61851        2.55685       -1.09553
| 45>    C        3.02349        3.93959       -1.33619
| 46>    H        2.55839        4.31930       -2.27137
| 47>    H        4.12517        4.03443       -1.45773
| 48>    H        2.73468        4.58029       -0.47529
| 49>    C        3.71865        1.59330       -1.06191
| 50>    H        3.44500        0.54623       -0.88461
| 51>    H        4.42932        1.87369       -0.25513
| 52>    H        4.25844        1.61659       -2.03276
| 53>    C       -2.66075       -0.77026        1.08438
| 54>    C       -4.49863       -0.59632       -0.45826
| 55>    C       -3.13459       -2.01311        1.51184
| 56>    H       -1.78023       -0.36943        1.56921
| 57>    C       -4.97717       -1.83809       -0.03408
| 58>    H       -5.04791       -0.07146       -1.23019
| 59>    C       -4.30516       -2.58427        0.96135
| 60>    H       -2.57545       -2.49199        2.29914
| 61>    H       -5.86842       -2.19727       -0.52199
| 62>    N       -4.79856       -3.87271        1.40489
| 63>    C       -6.17936       -4.29554        1.20438
| 64>    H       -6.83046       -3.52190        0.76433
| 65>    H       -6.63411       -4.54594        2.18655
| 66>    H       -6.20852       -5.19782        0.55731
| 67>    C       -3.95053       -4.84419        2.08501
| 68>    H       -2.89049       -4.54778        2.15590
| 69>    H       -3.95684       -5.79944        1.51792
| 70>    H       -4.33837       -5.03410        3.10832
| 71>   Cl        3.12754       -0.53932        2.09016
| 72> *
| 73>
| 74>
| 75>                          ****END OF INPUT****
 Total Charge           Charge          ....    0
 Multiplicity           Mult            ....    1
 Number of Electrons    NEL             ....  218
Dispersion correction           -0.027403974
FINAL SINGLE POINT ENERGY     -1595.213442075262
Dispersion correction            ... done
Dispersion correction           -0.027747755
FINAL SINGLE POINT ENERGY     -1595.242396015414
Dispersion correction            ... done
Dispersion correction           -0.027994710
FINAL SINGLE POINT ENERGY     -1595.251078008664
Dispersion correction            ... done
FINAL SINGLE POINT ENERGY     -1595.253601481762
FINAL SINGLE POINT ENERGY     -1595.255266193843
FINAL SINGLE POINT ENERGY     -1595.256158388702
FINAL SINGLE POINT ENERGY     -1595.256889871960
FINAL SINGLE POINT ENERGY     -1595.257571232030
FINAL SINGLE POINT ENERGY     -1595.258381532443
FINAL SINGLE POINT ENERGY     -1595.259074217313
FINAL SINGLE POINT ENERGY     -1595.266693675587
FINAL SINGLE POINT ENERGY     -1595.266691473669
FINAL SINGLE POINT ENERGY     -1595.266657647848
FINAL SINGLE POINT ENERGY     -1595.266641483406
FINAL SINGLE POINT ENERGY     -1595.266720931795
FINAL SINGLE POINT ENERGY     -1595.266663796341
FINAL SINGLE POINT ENERGY     -1595.266696670165
Dispersion correction            ... done
Dispersion correction           -0.029789828
FINAL SINGLE POINT ENERGY     -1595.266669318186
Dispersion correction            ... done
Dispersion correction           -0.029792436
FINAL SINGLE POINT ENERGY     -1595.266664983106
Dispersion correction            ... done
                    ***********************HURRAY********************

CARTESIAN COORDINATES (ANGSTROEM)
---------------------------------
  N     -7.089752    5.175857   -1.438187
  C     -6.983125    6.136230   -2.517930
  H     -6.080703    6.747777   -2.425642
  H     -7.845144    6.797563   -2.488322
  H     -6.967142    5.644392   -3.494753
  C     -8.220551    5.245651   -0.535017
  H     -7.911393    5.500204    0.483614
  H     -8.764029    4.297472   -0.503202
  H     -8.905131    6.014114   -0.883529
  C     -6.119884    4.247728   -1.249714
  C     -6.176538    3.334201   -0.171904
  C     -5.011843    4.156249   -2.122943
  C     -5.199227    2.385776   -0.000069
  H     -6.986633    3.381210    0.541530
  C     -4.031314    3.217095   -1.919325
  H     -4.927887    4.820312   -2.971080
  C     -4.092872    2.296078   -0.860689
  H     -5.262018    1.720113    0.852429
  H     -3.206103    3.161123   -2.619369
  C     -3.052439    1.309982   -0.662587
  C     -3.375314    0.013999   -0.138845
  C     -1.695058    1.630837   -0.935077
  C     -1.185180    2.928181   -0.699409
  C     -0.763530    0.638272   -1.322745
  C      0.155814    3.187013   -0.717926
  H     -1.864764    3.716057   -0.399412
  C      0.570903    0.889187   -1.383330
  H     -1.126336   -0.345181   -1.593657
  C      1.086916    2.150368   -0.989451
  H      0.502220    4.171650   -0.440332
  H      1.243409    0.097067   -1.673750
  N      2.410923    2.341068   -0.867445
  C      2.936781    3.631879   -0.466425
  H      2.552007    4.424970   -1.108745
  H      4.019156    3.616218   -0.566607
  H      2.685276    3.865993    0.573059
  C      3.307507    1.193362   -0.855390
  H      2.938738    0.438955   -0.154648
  H      4.289149    1.524149   -0.527029
  H      3.408874    0.753224   -1.850717
  C     -2.457675   -0.683817    0.677461
  C     -4.617158   -0.606225   -0.385477
  C     -2.761200   -1.904823    1.216692
  H     -1.498288   -0.243890    0.940205
  C     -4.922963   -1.838825    0.125418
  H     -5.333830   -0.118696   -1.035770
  C     -4.004428   -2.527712    0.959081
  H     -2.028853   -2.372113    1.859519
  H     -5.873904   -2.286574   -0.124336
  N     -4.308169   -3.731951    1.490117
  C     -5.600478   -4.340593    1.244150
  H     -6.415832   -3.701544    1.593644
  H     -5.654648   -5.282953    1.781518
  H     -5.753193   -4.545570    0.180651
  C     -3.344740   -4.426244    2.324701
  H     -2.421931   -4.636756    1.778613
  H     -3.773857   -5.370557    2.647195
  H     -3.092520   -3.843014    3.214189
  Cl     0.932612   -0.184596    1.877989

 Multiplicity           Mult            ....    1
 Number of Electrons    NEL             ....  218
 Basis Dimension        Dim             .... 1085

ORBITAL ENERGIES
----------------

  NO   OCC          E(Eh)            E(eV)
   0   2.0000    -101.456746     -2760.7784
   1   2.0000     -14.459511      -393.4633
   2   2.0000     -14.457187      -393.4001
   3   2.0000     -14.454029      -393.3141
   4   2.0000     -10.341597      -281.4092
   5   2.0000     -10.337668      -281.3022
   6   2.0000     -10.337596      -281.3003
   7   2.0000     -10.335162      -281.2341
   8   2.0000     -10.310162      -280.5538
   9   2.0000     -10.310117      -280.5526
  10   2.0000     -10.306340      -280.4498
  11   2.0000     -10.302308      -280.3400
  12   2.0000     -10.299931      -280.2754
  13   2.0000     -10.296436      -280.1803
  14   2.0000     -10.296136      -280.1721
  15   2.0000     -10.293506      -280.1005
  16   2.0000     -10.291644      -280.0499
  17   2.0000     -10.290770      -280.0261
  18   2.0000     -10.290644      -280.0226
  19   2.0000     -10.285555      -279.8842
  20   2.0000     -10.284953      -279.8678
  21   2.0000     -10.283392      -279.8253
  22   2.0000     -10.282547      -279.8023
  23   2.0000     -10.282350      -279.7970
  24   2.0000     -10.281894      -279.7846
  25   2.0000     -10.278356      -279.6883
  26   2.0000     -10.273890      -279.5668
  27   2.0000     -10.269824      -279.4561
  28   2.0000     -10.268008      -279.4067
  29   2.0000      -9.406988      -255.9772
  30   2.0000      -7.153957      -194.6691
  31   2.0000      -7.153875      -194.6668
  32   2.0000      -7.153591      -194.6591
  33   2.0000      -1.091634       -29.7049
  34   2.0000      -1.088190       -29.6112
  35   2.0000      -1.084217       -29.5030
  36   2.0000      -1.009399       -27.4671
  37   2.0000      -0.979250       -26.6467
  38   2.0000      -0.973107       -26.4796
  39   2.0000      -0.928122       -25.2555
  40   2.0000      -0.886812       -24.1314
  41   2.0000      -0.883178       -24.0325
  42   2.0000      -0.877278       -23.8720
  43   2.0000      -0.873388       -23.7661
  44   2.0000      -0.868597       -23.6357
  45   2.0000      -0.849020       -23.1030
  46   2.0000      -0.843292       -22.9471
  47   2.0000      -0.836356       -22.7584
  48   2.0000      -0.827938       -22.5293
  49   2.0000      -0.789991       -21.4967
  50   2.0000      -0.785339       -21.3702
  51   2.0000      -0.763910       -20.7870
  52   2.0000      -0.737887       -20.0789
  53   2.0000      -0.729794       -19.8587
  54   2.0000      -0.725000       -19.7283
  55   2.0000      -0.712739       -19.3946
  56   2.0000      -0.697000       -18.9663
  57   2.0000      -0.691646       -18.8206
  58   2.0000      -0.673330       -18.3222
  59   2.0000      -0.648807       -17.6549
  60   2.0000      -0.643203       -17.5024
  61   2.0000      -0.631272       -17.1778
  62   2.0000      -0.608906       -16.5692
  63   2.0000      -0.607376       -16.5275
  64   2.0000      -0.594918       -16.1885
  65   2.0000      -0.584516       -15.9055
  66   2.0000      -0.580707       -15.8019
  67   2.0000      -0.579877       -15.7793
  68   2.0000      -0.578478       -15.7412
  69   2.0000      -0.573351       -15.6017
  70   2.0000      -0.561203       -15.2711
  71   2.0000      -0.552774       -15.0417
  72   2.0000      -0.550406       -14.9773
  73   2.0000      -0.536418       -14.5967
  74   2.0000      -0.533851       -14.5268
  75   2.0000      -0.527902       -14.3649
  76   2.0000      -0.527414       -14.3517
  77   2.0000      -0.526135       -14.3169
  78   2.0000      -0.522157       -14.2086
  79   2.0000      -0.515308       -14.0222
  80   2.0000      -0.512973       -13.9587
  81   2.0000      -0.509866       -13.8742
  82   2.0000      -0.502376       -13.6703
  83   2.0000      -0.501224       -13.6390
  84   2.0000      -0.497688       -13.5428
  85   2.0000      -0.492340       -13.3972
  86   2.0000      -0.489275       -13.3139
  87   2.0000      -0.484862       -13.1938
  88   2.0000      -0.481361       -13.0985
  89   2.0000      -0.479583       -13.0501
  90   2.0000      -0.477712       -12.9992
  91   2.0000      -0.471008       -12.8168
  92   2.0000      -0.465148       -12.6573
  93   2.0000      -0.463010       -12.5991
  94   2.0000      -0.437738       -11.9114
  95   2.0000      -0.428870       -11.6701
  96   2.0000      -0.424864       -11.5612
  97   2.0000      -0.419526       -11.4159
  98   2.0000      -0.396130       -10.7792
  99   2.0000      -0.388890       -10.5822
 100   2.0000      -0.362220        -9.8565
 101   2.0000      -0.353114        -9.6087
 102   2.0000      -0.346960        -9.4413
 103   2.0000      -0.321477        -8.7478
 104   2.0000      -0.293585        -7.9888
 105   2.0000      -0.292657        -7.9636
 106   2.0000      -0.290308        -7.8997
 107   2.0000      -0.279515        -7.6060
 108   2.0000      -0.266457        -7.2507
 109   0.0000      -0.044147        -1.2013
 110   0.0000       0.044630         1.2144
 111   0.0000       0.058857         1.6016
 112   0.0000       0.061190         1.6651
 113   0.0000       0.072073         1.9612

MULLIKEN ATOMIC CHARGES
-----------------------
   0 N :   -0.076447
   1 C :   -0.325113
   2 H :    0.151112
   3 H :    0.149753
   4 H :    0.149302
   5 C :   -0.328699
   6 H :    0.149992
   7 H :    0.151850
   8 H :    0.152285
   9 C :    0.299481
  10 C :   -0.278834
  11 C :   -0.270269
  12 C :   -0.271026
  13 H :    0.164306
  14 C :   -0.284477
  15 H :    0.162587
  16 C :    0.142431
  17 H :    0.182588
  18 H :    0.173820
  19 C :    0.245065
  20 C :    0.095608
  21 C :    0.078946
  22 C :   -0.220842
  23 C :   -0.211840
  24 C :   -0.316549
  25 H :    0.180559
  26 C :   -0.284509
  27 H :    0.167446
  28 C :    0.364194
  29 H :    0.153755
  30 H :    0.158855
  31 N :   -0.058775
  32 C :   -0.327286
  33 H :    0.147000
  34 H :    0.153307
  35 H :    0.160588
  36 C :   -0.310275
  37 H :    0.156415
  38 H :    0.137704
  39 H :    0.141393
  40 C :   -0.248365
  41 C :   -0.293593
  42 C :   -0.282640
  43 H :    0.179001
  44 C :   -0.277190
  45 H :    0.176554
  46 C :    0.306527
  47 H :    0.158550
  48 H :    0.161025
  49 N :   -0.074845
  50 C :   -0.323266
  51 H :    0.151826
  52 H :    0.148313
  53 H :    0.150850
  54 C :   -0.314451
  55 H :    0.156628
  56 H :    0.141299
  57 H :    0.155721
  58 Cl:   -0.877344
Sum of atomic charges:   -0.0000000

LOEWDIN ATOMIC CHARGES
----------------------
   0 N :    0.161761
   1 C :   -0.284780
   2 H :    0.122020
   3 H :    0.126429
   4 H :    0.121828
   5 C :   -0.284834
   6 H :    0.120985
   7 H :    0.122682
   8 H :    0.127016
   9 C :   -0.176703
  10 C :   -0.134215
  11 C :   -0.134967
  12 C :   -0.081376
  13 H :    0.156121
  14 C :   -0.082067
  15 H :    0.156110
  16 C :   -0.133928
  17 H :    0.166205
  18 H :    0.164719
  19 C :    0.041375
  20 C :   -0.132539
  21 C :   -0.131101
  22 C :   -0.074431
  23 C :   -0.074106
  24 C :   -0.130437
  25 H :    0.165026
  26 C :   -0.123300
  27 H :    0.165144
  28 C :   -0.161097
  29 H :    0.154716
  30 H :    0.158750
  31 N :    0.182724
  32 C :   -0.279536
  33 H :    0.122914
  34 H :    0.126768
  35 H :    0.124358
  36 C :   -0.277919
  37 H :    0.120671
  38 H :    0.124202
  39 H :    0.118857
  40 C :   -0.070826
  41 C :   -0.083727
  42 C :   -0.130044
  43 H :    0.154442
  44 C :   -0.137017
  45 H :    0.163570
  46 C :   -0.170267
  47 H :    0.159283
  48 H :    0.155135
  49 N :    0.168881
  50 C :   -0.282593
  51 H :    0.122386
  52 H :    0.126605
  53 H :    0.121706
  54 C :   -0.278162
  55 H :    0.124831
  56 H :    0.124734
  57 H :    0.124715
  58 Cl:   -0.847693

  Mayer bond orders larger than 0.100000
B(  0-N ,  1-C ) :   0.9460 B(  0-N ,  5-C ) :   0.9447 B(  0-N ,  9-C ) :   1.3181
B(  1-C ,  2-H ) :   0.9654 B(  1-C ,  3-H ) :   0.9659 B(  1-C ,  4-H ) :   0.9630
B(  5-C ,  6-H ) :   0.9635 B(  5-C ,  7-H ) :   0.9638 B(  5-C ,  8-H ) :   0.9654
B(  9-C , 10-C ) :   1.2091 B(  9-C , 11-C ) :   1.2083 B( 10-C , 12-C ) :   1.5731
B( 10-C , 13-H ) :   0.9582 B( 11-C , 14-C ) :   1.5731 B( 11-C , 15-H ) :   0.9569
B( 12-C , 16-C ) :   1.2758 B( 12-C , 17-H ) :   0.9723 B( 14-C , 16-C ) :   1.2720
B( 14-C , 18-H ) :   0.9823 B( 16-C , 19-C ) :   1.0460 B( 16-C , 20-C ) :  -0.1049
B( 16-C , 21-C ) :  -0.1020 B( 19-C , 20-C ) :   1.1197 B( 19-C , 21-C ) :   1.1773
B( 20-C , 21-C ) :  -0.1092 B( 20-C , 40-C ) :   1.2702 B( 20-C , 41-C ) :   1.2419
B( 21-C , 22-C ) :   1.2309 B( 21-C , 23-C ) :   1.2275 B( 22-C , 24-C ) :   1.6482
B( 22-C , 25-H ) :   0.9570 B( 23-C , 26-C ) :   1.6278 B( 23-C , 27-H ) :   0.9780
B( 24-C , 28-C ) :   1.1780 B( 24-C , 29-H ) :   0.9486 B( 26-C , 28-C ) :   1.1566
B( 26-C , 30-H ) :   0.9576 B( 28-C , 31-N ) :   1.3679 B( 31-N , 32-C ) :   0.9464
B( 31-N , 36-C ) :   0.9172 B( 32-C , 33-H ) :   0.9611 B( 32-C , 34-H ) :   0.9652
B( 32-C , 35-H ) :   0.9624 B( 36-C , 37-H ) :   0.9514 B( 36-C , 38-H ) :   0.9676
B( 36-C , 39-H ) :   0.9598 B( 40-C , 42-C ) :   1.6357 B( 40-C , 43-H ) :   0.9155
B( 41-C , 44-C ) :   1.6045 B( 41-C , 45-H ) :   0.9727 B( 42-C , 46-C ) :   1.1957
B( 42-C , 47-H ) :   0.9437 B( 43-H , 58-Cl) :   0.1485 B( 44-C , 46-C ) :   1.1923
B( 44-C , 48-H ) :   0.9575 B( 46-C , 49-N ) :   1.3348 B( 49-N , 50-C ) :   0.9409
B( 49-N , 54-C ) :   0.9388 B( 50-C , 51-H ) :   0.9640 B( 50-C , 52-H ) :   0.9675
B( 50-C , 53-H ) :   0.9635 B( 54-C , 55-H ) :   0.9651 B( 54-C , 56-H ) :   0.9655
B( 54-C , 57-H ) :   0.9635

Dispersion correction           -0.029793278
FINAL SINGLE POINT ENERGY     -1595.266665357904

DIPOLE MOMENT
-------------
                                X             Y             Z
Electronic contribution:      8.27807      -2.68734       1.28321
Nuclear contribution   :    -14.06337       4.82504      -4.49742
                        -----------------------------------------
Total Dipole Moment    :     -5.78530       2.13770      -3.21421
                        -----------------------------------------
Magnitude (a.u.)       :      6.95490
Magnitude (Debye)      :     17.67794

Rotational constants in cm-1:     0.004579     0.003512     0.002106
Rotational constants in MHz :   137.281827   105.295282    63.151082

                             ****ORCA TERMINATED NORMALLY****
TOTAL RUN TIME: 5 days 0 hours 4 minutes 53 seconds 174 msec
