                         Program Version 4.2.1 -  RELEASE  -
                         Program Version 4.2.1 -  RELEASE  -
                         Program Version 4.2.1 -  RELEASE  -
                         Program Version 4.2.1 -  RELEASE  -
                         Program Version 4.2.1 -  RELEASE  -
|  1> # avogadro generated ORCA input file
|  2> # Basic Mode
|  3> #
|  4> ! wB97X-D3 OPT def2-TZVP def2/J CPCM
|  5> %cpcm
|  6>   epsilon 3
|  7> end
|  8> %pal
|  9>  nprocs 4
| 10> end
| 11>
| 12>
| 13> * xyz 0 1
| 14>    N       -0.95971       -0.91434       -0.09559
| 15>    C        0.30126       -0.91434       -0.09559
| 16>    C        1.82126       -0.91434       -0.09559
| 17>    C        2.51846       -1.05884        1.12920
| 18>    N        3.10563       -1.17565        2.12113
| 19>    C        2.51204       -0.78130       -1.29619
| 20>    C        2.51485       -0.61371       -2.75091
| 21>    C        1.82291       -0.46863       -3.95660
| 22>    C        2.58363       -0.31977       -5.26409
| 23>    N        3.21470       -0.19627       -6.34877
| 24>    C        0.30295       -0.45811       -3.95621
| 25>    N       -0.95799       -0.44939       -3.95589
| 26>    C        3.78398       -0.70769       -2.02107
| 27>    C        5.18811       -0.71950       -2.02718
| 28>    C        5.90532       -0.58591       -3.24143
| 29>    N        6.47471       -0.47549       -4.24439
| 30>    C        5.94714       -0.87890       -0.71994
| 31>    N        6.57682       -1.01114        0.36452
| 32> *
| 33>
| 34>
| 35>                          ****END OF INPUT****
 Total Charge           Charge          ....    0
 Multiplicity           Mult            ....    1
 Number of Electrons    NEL             ....  114
Dispersion correction           -0.008183974
FINAL SINGLE POINT ENERGY      -785.430666511525
Dispersion correction            ... done
Dispersion correction           -0.008427170
FINAL SINGLE POINT ENERGY      -785.530001374416
Dispersion correction            ... done
Dispersion correction           -0.008686109
FINAL SINGLE POINT ENERGY      -785.561010521600
Dispersion correction            ... done
FINAL SINGLE POINT ENERGY      -785.563114861935
FINAL SINGLE POINT ENERGY      -785.563229902651
FINAL SINGLE POINT ENERGY      -785.563265240458
FINAL SINGLE POINT ENERGY      -785.563267591898
Dispersion correction            ... done
Dispersion correction           -0.008670287
FINAL SINGLE POINT ENERGY      -785.563272327835
Dispersion correction            ... done
Dispersion correction           -0.008668949
FINAL SINGLE POINT ENERGY      -785.563272603191
Dispersion correction            ... done
                    ***********************HURRAY********************

CARTESIAN COORDINATES (ANGSTROEM)
---------------------------------
  N     -0.742627   -0.887832   -0.154250
  C      0.404651   -0.896968   -0.162913
  C      1.833090   -0.908015   -0.176260
  C      2.517338   -1.062141    1.068329
  N      3.069546   -1.186323    2.066404
  C      2.511167   -0.779675   -1.322904
  C      2.521069   -0.616656   -2.733261
  C      1.859143   -0.478928   -3.888238
  C      2.560826   -0.340889   -5.124952
  N      3.127526   -0.229618   -6.116421
  C      0.430858   -0.466364   -3.918787
  N     -0.716231   -0.456778   -3.941317
  C      3.745046   -0.708266   -2.020570
  C      5.083294   -0.718208   -2.011489
  C      5.827058   -0.582338   -3.223617
  N      6.425015   -0.473002   -4.196751
  C      5.808324   -0.866052   -0.789420
  N      6.390977   -0.985266    0.191826

 Multiplicity           Mult            ....    1
 Number of Electrons    NEL             ....  114
 Basis Dimension        Dim             ....  558

ORBITAL ENERGIES
----------------

  NO   OCC          E(Eh)            E(eV)
   0   2.0000     -14.474882      -393.8816
   1   2.0000     -14.474878      -393.8815
   2   2.0000     -14.474866      -393.8811
   3   2.0000     -14.474863      -393.8811
   4   2.0000     -14.474813      -393.8797
   5   2.0000     -14.474783      -393.8789
   6   2.0000     -10.432060      -283.8708
   7   2.0000     -10.432007      -283.8693
   8   2.0000     -10.431992      -283.8689
   9   2.0000     -10.417213      -283.4668
  10   2.0000     -10.416477      -283.4468
  11   2.0000     -10.416216      -283.4397
  12   2.0000     -10.370968      -282.2084
  13   2.0000     -10.370966      -282.2083
  14   2.0000     -10.370945      -282.2078
  15   2.0000     -10.370936      -282.2075
  16   2.0000     -10.370870      -282.2057
  17   2.0000     -10.370857      -282.2054
  18   2.0000      -1.137634       -30.9566
  19   2.0000      -1.090067       -29.6622
  20   2.0000      -1.090039       -29.6615
  21   2.0000      -1.082800       -29.4645
  22   2.0000      -1.074721       -29.2446
  23   2.0000      -1.074707       -29.2443
  24   2.0000      -1.073979       -29.2245
  25   2.0000      -1.002686       -27.2845
  26   2.0000      -1.002599       -27.2821
  27   2.0000      -0.971775       -26.4433
  28   2.0000      -0.800009       -21.7693
  29   2.0000      -0.799918       -21.7669
  30   2.0000      -0.756730       -20.5917
  31   2.0000      -0.756595       -20.5880
  32   2.0000      -0.754269       -20.5247
  33   2.0000      -0.749466       -20.3940
  34   2.0000      -0.623212       -16.9585
  35   2.0000      -0.562787       -15.3142
  36   2.0000      -0.562735       -15.3128
  37   2.0000      -0.557943       -15.1824
  38   2.0000      -0.557647       -15.1743
  39   2.0000      -0.525481       -14.2991
  40   2.0000      -0.524138       -14.2625
  41   2.0000      -0.524122       -14.2621
  42   2.0000      -0.518644       -14.1130
  43   2.0000      -0.516530       -14.0555
  44   2.0000      -0.516519       -14.0552
  45   2.0000      -0.508098       -13.8261
  46   2.0000      -0.505229       -13.7480
  47   2.0000      -0.496009       -13.4971
  48   2.0000      -0.496005       -13.4970
  49   2.0000      -0.494111       -13.4454
  50   2.0000      -0.494095       -13.4450
  51   2.0000      -0.493661       -13.4332
  52   2.0000      -0.480994       -13.0885
  53   2.0000      -0.480913       -13.0863
  54   2.0000      -0.480087       -13.0638
  55   2.0000      -0.397773       -10.8240
  56   2.0000      -0.397762       -10.8237
  57   0.0000      -0.154736        -4.2106
  58   0.0000       0.015114         0.4113
  59   0.0000       0.015132         0.4118
  60   0.0000       0.034238         0.9317
  61   0.0000       0.040980         1.1151

MULLIKEN ATOMIC CHARGES
-----------------------
   0 N :   -0.008237
   1 C :   -0.199593
   2 C :    0.498740
   3 C :   -0.195174
   4 N :   -0.012641
   5 C :   -0.078641
   6 C :   -0.077775
   7 C :    0.499231
   8 C :   -0.194312
   9 N :   -0.012559
  10 C :   -0.200141
  11 N :   -0.007954
  12 C :   -0.086862
  13 C :    0.491294
  14 C :   -0.195742
  15 N :   -0.011987
  16 C :   -0.195458
  17 N :   -0.012188
Sum of atomic charges:   -0.0000000

LOEWDIN ATOMIC CHARGES
----------------------
   0 N :    0.110518
   1 C :   -0.109545
   2 C :   -0.074596
   3 C :   -0.109458
   4 N :    0.110511
   5 C :    0.072244
   6 C :    0.072263
   7 C :   -0.074564
   8 C :   -0.109406
   9 N :    0.110489
  10 C :   -0.109605
  11 N :    0.110631
  12 C :    0.072516
  13 C :   -0.074437
  14 C :   -0.109383
  15 N :    0.110580
  16 C :   -0.109410
  17 N :    0.110654

  Mayer bond orders larger than 0.100000
B(  0-N ,  1-C ) :   2.9502 B(  1-C ,  2-C ) :   0.9756 B(  2-C ,  3-C ) :   0.9701
B(  2-C ,  5-C ) :   1.5681 B(  3-C ,  4-N ) :   2.9490 B(  5-C ,  6-C ) :   1.2373
B(  5-C , 12-C ) :   1.2445 B(  6-C ,  7-C ) :   1.5688 B(  6-C , 12-C ) :   1.2415
B(  7-C ,  8-C ) :   0.9700 B(  7-C , 10-C ) :   0.9753 B(  8-C ,  9-N ) :   2.9489
B( 10-C , 11-N ) :   2.9505 B( 12-C , 13-C ) :   1.5756 B( 13-C , 14-C ) :   0.9707
B( 13-C , 16-C ) :   0.9706 B( 14-C , 15-N ) :   2.9500 B( 16-C , 17-N ) :   2.9500

Dispersion correction           -0.008667297
FINAL SINGLE POINT ENERGY      -785.563274663175

DIPOLE MOMENT
-------------
                                X             Y             Z
Electronic contribution:      0.00264       0.00359      -0.00038
Nuclear contribution   :      0.00001      -0.00002       0.00001
                        -----------------------------------------
Total Dipole Moment    :      0.00265       0.00357      -0.00037
                        -----------------------------------------
Magnitude (a.u.)       :      0.00446
Magnitude (Debye)      :      0.01134

Rotational constants in cm-1:     0.014468     0.014451     0.007230
Rotational constants in MHz :   433.728250   433.225957   216.738829

                             ****ORCA TERMINATED NORMALLY****
TOTAL RUN TIME: 0 days 3 hours 49 minutes 52 seconds 37 msec
