                         Program Version 4.2.1 -  RELEASE  -
|  1> # avogadro generated ORCA input file
|  2> # Basic Mode
|  3> #
|  4> ! wB97X-D3 OPT def2-TZVP def2/J CPCM
|  5> %cpcm
|  6>   epsilon 3
|  7> end
|  8> %pal
|  9>  nprocs 4
| 10> end
| 11>
| 12>
| 13> * xyz 0 1
| 14>    O        1.15640        0.72843        0.37136
| 15>    C        2.12092        0.10748       -0.07792
| 16>    C        2.27997       -1.34686        0.24144
| 17>    C        3.07202        0.81107       -0.98940
| 18>    C        2.31202        1.70920       -1.95177
| 19>    N        1.68154        2.45427       -2.75014
| 20>    C        4.41287        0.71717       -0.90062
| 21>    C        5.63010        0.22953       -0.35694
| 22>    C        6.43728       -0.51322        0.43315
| 23>    C        7.95728       -0.51298        0.43389
| 24>    N        9.21824       -0.51278        0.43450
| 25>    C        5.89863       -1.52616        1.38493
| 26>    C        4.83722       -1.15013        2.37495
| 27>    O        6.38988       -2.65454        1.40581
| 28>    C        5.65388        1.19146       -1.40056
| 29>    C        6.48133        1.89896       -2.15441
| 30>    C        7.89000        1.74647       -1.96929
| 31>    N        9.03432        1.62570       -1.82226
| 32>    C        6.17058        2.90076       -3.23453
| 33>    C        4.77416        3.19588       -3.65927
| 34>    O        7.08893        3.50433       -3.79399
| 35>    H        1.37236       -1.87817       -0.06003
| 36>    H        2.38197       -1.44338        1.32240
| 37>    H        3.13417       -1.79520       -0.26578
| 38>    H        4.32829       -0.22529        2.10220
| 39>    H        5.28437       -1.03602        3.36504
| 40>    H        4.11171       -1.96754        2.41392
| 41>    H        4.10400        2.49629       -3.20102
| 42>    H        4.68441        3.06762       -4.74101
| 43>    H        4.50866        4.21741       -3.37579
| 44> *
| 45>
| 46>
| 47>                          ****END OF INPUT****
 Total Charge           Charge          ....    0
 Multiplicity           Mult            ....    1
 Number of Electrons    NEL             ....  144
Dispersion correction           -0.015849523
FINAL SINGLE POINT ENERGY      -966.762450642700
Dispersion correction            ... done
Dispersion correction           -0.016044028
FINAL SINGLE POINT ENERGY      -966.823556366023
Dispersion correction            ... done
Dispersion correction           -0.015941384
FINAL SINGLE POINT ENERGY      -966.831270389261
Dispersion correction            ... done
FINAL SINGLE POINT ENERGY      -966.835111462411
FINAL SINGLE POINT ENERGY      -966.837582596736
FINAL SINGLE POINT ENERGY      -966.839747127746
FINAL SINGLE POINT ENERGY      -966.840892182064
FINAL SINGLE POINT ENERGY      -966.841645338158
FINAL SINGLE POINT ENERGY      -966.842226505962
FINAL SINGLE POINT ENERGY      -966.842594386470
FINAL SINGLE POINT ENERGY      -966.844007919047
FINAL SINGLE POINT ENERGY      -966.844081814059
FINAL SINGLE POINT ENERGY      -966.844169177084
FINAL SINGLE POINT ENERGY      -966.844192281227
FINAL SINGLE POINT ENERGY      -966.844206672833
FINAL SINGLE POINT ENERGY      -966.844224307891
FINAL SINGLE POINT ENERGY      -966.844230263696
Dispersion correction            ... done
Dispersion correction           -0.017060956
FINAL SINGLE POINT ENERGY      -966.844236307665
Dispersion correction            ... done
Dispersion correction           -0.017061712
FINAL SINGLE POINT ENERGY      -966.844239177249
Dispersion correction            ... done
                    ***********************HURRAY********************

CARTESIAN COORDINATES (ANGSTROEM)
---------------------------------
  O      1.502071    0.401243    0.705693
  C      2.345818   -0.100820    0.012594
  C      2.604419   -1.571010   -0.066175
  C      3.150922    0.797747   -0.918836
  C      2.359421    1.676563   -1.715162
  N      1.664155    2.348496   -2.334824
  C      4.485511    0.783824   -0.947380
  C      5.685387    0.202031   -0.429434
  C      6.304298   -0.593167    0.446269
  C      7.716239   -0.789816    0.392324
  N      8.849904   -0.972994    0.395677
  C      5.575022   -1.377196    1.525392
  C      4.657543   -0.608027    2.421949
  O      5.814994   -2.548583    1.649690
  C      5.762667    1.160999   -1.482541
  C      6.573188    1.845045   -2.298301
  C      7.979243    1.581553   -2.237275
  N      9.107660    1.375281   -2.195057
  C      6.162342    2.893962   -3.300577
  C      4.715406    3.233287   -3.415870
  O      7.026988    3.409937   -3.963386
  H      2.004177   -1.947179   -0.900505
  H      2.277591   -2.061835    0.848040
  H      3.640936   -1.812814   -0.296118
  H      4.175852    0.230848    1.922291
  H      5.278905   -0.184720    3.216933
  H      3.922847   -1.273550    2.870250
  H      4.147869    2.350612   -3.714274
  H      4.585896    4.015876   -4.159005
  H      4.330241    3.574164   -2.453523

 Multiplicity           Mult            ....    1
 Number of Electrons    NEL             ....  144
 Basis Dimension        Dim             ....  705

ORBITAL ENERGIES
----------------

  NO   OCC          E(Eh)            E(eV)
   0   2.0000     -19.270953      -524.3893
   1   2.0000     -19.268517      -524.3230
   2   2.0000     -19.258846      -524.0598
   3   2.0000     -14.460362      -393.4865
   4   2.0000     -14.453760      -393.3068
   5   2.0000     -14.448580      -393.1659
   6   2.0000     -10.423405      -283.6353
   7   2.0000     -10.420558      -283.5578
   8   2.0000     -10.410167      -283.2751
   9   2.0000     -10.393989      -282.8348
  10   2.0000     -10.391283      -282.7612
  11   2.0000     -10.388305      -282.6801
  12   2.0000     -10.386296      -282.6255
  13   2.0000     -10.385366      -282.6002
  14   2.0000     -10.380945      -282.4799
  15   2.0000     -10.357549      -281.8432
  16   2.0000     -10.350016      -281.6382
  17   2.0000     -10.344632      -281.4917
  18   2.0000     -10.305790      -280.4348
  19   2.0000     -10.303927      -280.3841
  20   2.0000     -10.293959      -280.1129
  21   2.0000      -1.215795       -33.0835
  22   2.0000      -1.212940       -33.0058
  23   2.0000      -1.203258       -32.7423
  24   2.0000      -1.105586       -30.0845
  25   2.0000      -1.067979       -29.0612
  26   2.0000      -1.059814       -28.8390
  27   2.0000      -1.055004       -28.7081
  28   2.0000      -0.977923       -26.6106
  29   2.0000      -0.974135       -26.5076
  30   2.0000      -0.944550       -25.7025
  31   2.0000      -0.893722       -24.3194
  32   2.0000      -0.890387       -24.2287
  33   2.0000      -0.883437       -24.0396
  34   2.0000      -0.770161       -20.9571
  35   2.0000      -0.764725       -20.8092
  36   2.0000      -0.730110       -19.8673
  37   2.0000      -0.727422       -19.7942
  38   2.0000      -0.723695       -19.6927
  39   2.0000      -0.714663       -19.4470
  40   2.0000      -0.631615       -17.1871
  41   2.0000      -0.628760       -17.1094
  42   2.0000      -0.618502       -16.8303
  43   2.0000      -0.604652       -16.4534
  44   2.0000      -0.597931       -16.2705
  45   2.0000      -0.583463       -15.8768
  46   2.0000      -0.577860       -15.7244
  47   2.0000      -0.571265       -15.5449
  48   2.0000      -0.565983       -15.4012
  49   2.0000      -0.558598       -15.2002
  50   2.0000      -0.538446       -14.6519
  51   2.0000      -0.534130       -14.5344
  52   2.0000      -0.526281       -14.3208
  53   2.0000      -0.523935       -14.2570
  54   2.0000      -0.519357       -14.1324
  55   2.0000      -0.512567       -13.9477
  56   2.0000      -0.510169       -13.8824
  57   2.0000      -0.507265       -13.8034
  58   2.0000      -0.499766       -13.5993
  59   2.0000      -0.497540       -13.5388
  60   2.0000      -0.494092       -13.4449
  61   2.0000      -0.486956       -13.2507
  62   2.0000      -0.485483       -13.2107
  63   2.0000      -0.478387       -13.0176
  64   2.0000      -0.476740       -12.9728
  65   2.0000      -0.472187       -12.8489
  66   2.0000      -0.454814       -12.3761
  67   2.0000      -0.400621       -10.9015
  68   2.0000      -0.399557       -10.8725
  69   2.0000      -0.387745       -10.5511
  70   2.0000      -0.384834       -10.4719
  71   2.0000      -0.382052       -10.3962
  72   0.0000      -0.123411        -3.3582
  73   0.0000       0.007788         0.2119
  74   0.0000       0.017047         0.4639
  75   0.0000       0.028941         0.7875
  76   0.0000       0.055709         1.5159

MULLIKEN ATOMIC CHARGES
-----------------------
   0 O :   -0.302649
   1 C :    0.139972
   2 C :   -0.387631
   3 C :    0.362326
   4 C :   -0.209580
   5 N :   -0.026255
   6 C :   -0.063842
   7 C :   -0.201117
   8 C :    0.371097
   9 C :   -0.203152
  10 N :   -0.026395
  11 C :    0.146648
  12 C :   -0.393327
  13 O :   -0.303627
  14 C :   -0.017333
  15 C :    0.261267
  16 C :   -0.199496
  17 N :   -0.029491
  18 C :    0.226509
  19 C :   -0.432431
  20 O :   -0.322508
  21 H :    0.195790
  22 H :    0.176943
  23 H :    0.170513
  24 H :    0.168181
  25 H :    0.195563
  26 H :    0.176123
  27 H :    0.179187
  28 H :    0.172249
  29 H :    0.176465
Sum of atomic charges:   -0.0000000

LOEWDIN ATOMIC CHARGES
----------------------
   0 O :    0.162985
   1 C :   -0.306902
   2 C :   -0.235452
   3 C :   -0.061899
   4 C :   -0.139109
   5 N :    0.083817
   6 C :    0.030248
   7 C :    0.029719
   8 C :   -0.056638
   9 C :   -0.129309
  10 N :    0.089479
  11 C :   -0.307756
  12 C :   -0.236720
  13 O :    0.162109
  14 C :    0.047481
  15 C :   -0.059450
  16 C :   -0.129712
  17 N :    0.083533
  18 C :   -0.299150
  19 C :   -0.239380
  20 O :    0.154941
  21 H :    0.164485
  22 H :    0.148046
  23 H :    0.143413
  24 H :    0.142282
  25 H :    0.163864
  26 H :    0.147749
  27 H :    0.151742
  28 H :    0.145198
  29 H :    0.150386

  Mayer bond orders larger than 0.100000
B(  0-O ,  1-C ) :   2.0849 B(  1-C ,  2-C ) :   1.0088 B(  1-C ,  3-C ) :   0.8231
B(  2-C , 21-H ) :   0.9149 B(  2-C , 22-H ) :   0.9604 B(  2-C , 23-H ) :   0.9480
B(  3-C ,  4-C ) :   1.0276 B(  3-C ,  6-C ) :   1.6325 B(  4-C ,  5-N ) :   2.9526
B(  6-C ,  7-C ) :   1.2768 B(  6-C , 14-C ) :   1.1599 B(  7-C ,  8-C ) :   1.6283
B(  7-C , 14-C ) :   1.2620 B(  8-C ,  9-C ) :   1.0108 B(  8-C , 11-C ) :   0.8246
B(  9-C , 10-N ) :   2.9726 B( 11-C , 12-C ) :   1.0163 B( 11-C , 13-O ) :   2.0893
B( 12-C , 24-H ) :   0.9471 B( 12-C , 25-H ) :   0.9163 B( 12-C , 26-H ) :   0.9607
B( 14-C , 15-C ) :   1.5835 B( 15-C , 16-C ) :   0.9689 B( 15-C , 18-C ) :   0.8961
B( 16-C , 17-N ) :   2.9850 B( 18-C , 19-C ) :   1.0487 B( 18-C , 20-O ) :   2.0603
B( 19-C , 27-H ) :   0.9380 B( 19-C , 28-H ) :   0.9549 B( 19-C , 29-H ) :   0.9438

Dispersion correction           -0.017063587
FINAL SINGLE POINT ENERGY      -966.844243772746

DIPOLE MOMENT
-------------
                                X             Y             Z
Electronic contribution:      8.91719       1.99461      -3.54410
Nuclear contribution   :    -11.68191      -2.47232       4.47539
                        -----------------------------------------
Total Dipole Moment    :     -2.76472      -0.47770       0.93129
                        -----------------------------------------
Magnitude (a.u.)       :      2.95621
Magnitude (Debye)      :      7.51408

Rotational constants in cm-1:     0.011623     0.009639     0.005508
Rotational constants in MHz :   348.444339   288.979455   165.131788

                             ****ORCA TERMINATED NORMALLY****
TOTAL RUN TIME: 0 days 22 hours 42 minutes 16 seconds 751 msec
