                         Program Version 4.2.1 -  RELEASE  -
|  1> # avogadro generated ORCA input file
|  2> # Basic Mode
|  3> #
|  4> ! wB97X-D3 OPT def2-TZVP def2/J CPCM
|  5> %cpcm
|  6>   epsilon 3
|  7> end
|  8> %pal
|  9>  nprocs 8
| 10> end
| 11>
| 12> * xyz 0 1
| 13>    C       -5.08056        4.63786        0.04878
| 14>    N       -3.63293        4.67308        0.04516
| 15>    C       -2.85070        5.83860        0.13619
| 16>    C       -3.27315        7.15640        0.32025
| 17>    C       -2.29159        8.16030        0.37174
| 18>    C       -0.92716        7.82964        0.23675
| 19>    C       -0.53310        6.49278        0.04845
| 20>    C       -1.53194        5.51273        0.00323
| 21>    N       -1.41163        4.11475       -0.18008
| 22>    C       -0.17824        3.39102       -0.42019
| 23>    C       -2.75039        3.52427       -0.13534
| 24>    C       -2.86465        2.49500        0.98525
| 25>    C       -2.24792        1.25285        0.83263
| 26>    C       -2.32872        0.27961        1.82918
| 27>    C       -3.03618        0.48718        3.05069
| 28>    N       -3.07987       -0.58427        4.06133
| 29>    C       -2.35306       -1.83026        3.72847
| 30>    C       -2.37658       -2.96564        4.76717
| 31>    C       -3.76530       -0.57598        5.37785
| 32>    C       -4.55586        0.62976        5.86152
| 33>    C       -3.65312        1.76229        3.17519
| 34>    C       -3.56942        2.73336        2.17117
| 35>    H       -5.46810        5.05320        1.00232
| 36>    H       -5.44370        3.59481       -0.06738
| 37>    H       -5.46955        5.24545       -0.79487
| 38>    H       -4.32199        7.40226        0.42118
| 39>    H       -2.58424        9.19236        0.51459
| 40>    H       -0.17850        8.61015        0.27682
| 41>    H        0.51461        6.25128       -0.05557
| 42>    H        0.69502        4.06966       -0.45796
| 43>    H       -0.24475        2.85731       -1.39101
| 44>    H        0.00316        2.66216        0.39451
| 45>    H       -2.99761        3.04653       -1.10896
| 46>    H       -1.70136        1.02452       -0.07413
| 47>    H       -1.81577       -0.64089        1.60128
| 48>    H       -2.78445       -2.25959        2.79768
| 49>    H       -1.27991       -1.58672        3.56718
| 50>    H       -3.41002       -3.32544        4.94982
| 51>    H       -1.90344       -2.65117        5.72013
| 52>    H       -1.79179       -3.82483        4.37542
| 53>    H       -3.00362       -0.74887        6.16748
| 54>    H       -4.49456       -1.41361        5.39252
| 55>    H       -3.89002        1.50630        6.00711
| 56>    H       -4.97884        0.39716        6.86245
| 57>    H       -5.42419        0.82576        5.19767
| 58>    H       -4.21428        2.09635        4.00738
| 59>    H       -4.05651        3.68150        2.34619
| 60> *
| 61>
| 62>
| 63>                          ****END OF INPUT****
 Total Charge           Charge          ....    0
 Multiplicity           Mult            ....    1
 Number of Electrons    NEL             ....  160
Dispersion correction           -0.021425587
FINAL SINGLE POINT ENERGY      -903.350483369936
Dispersion correction            ... done
Dispersion correction           -0.021597186
FINAL SINGLE POINT ENERGY      -903.368794602862
Dispersion correction            ... done
Dispersion correction           -0.021619898
FINAL SINGLE POINT ENERGY      -903.371583620586
Dispersion correction            ... done
FINAL SINGLE POINT ENERGY      -903.374395448852
FINAL SINGLE POINT ENERGY      -903.375489511735
FINAL SINGLE POINT ENERGY      -903.376157992777
FINAL SINGLE POINT ENERGY      -903.376798971664
FINAL SINGLE POINT ENERGY      -903.377588306478
FINAL SINGLE POINT ENERGY      -903.378181594920
FINAL SINGLE POINT ENERGY      -903.379218635475
FINAL SINGLE POINT ENERGY      -903.401871391999
FINAL SINGLE POINT ENERGY      -903.401924133557
FINAL SINGLE POINT ENERGY      -903.401989138104
FINAL SINGLE POINT ENERGY      -903.402323632748
FINAL SINGLE POINT ENERGY      -903.402725785123
FINAL SINGLE POINT ENERGY      -903.402798446887
FINAL SINGLE POINT ENERGY      -903.402830116883
Dispersion correction            ... done
Dispersion correction           -0.022008382
FINAL SINGLE POINT ENERGY      -903.402851974005
Dispersion correction            ... done
Dispersion correction           -0.022008505
FINAL SINGLE POINT ENERGY      -903.402854862525
Dispersion correction            ... done
                    ***********************HURRAY********************

CARTESIAN COORDINATES (ANGSTROEM)
---------------------------------
  C     -4.772125    4.360906    0.168732
  N     -3.446334    4.729639    0.599452
  C     -2.897800    5.949450    0.209788
  C     -3.500157    7.144021   -0.114087
  C     -2.678011    8.235188   -0.428396
  C     -1.302528    8.110699   -0.423588
  C     -0.691270    6.889524   -0.105028
  C     -1.500288    5.822524    0.213989
  N     -1.183000    4.523028    0.604880
  C      0.056765    3.922349    0.179108
  C     -2.395507    3.726933    0.424597
  C     -2.506518    2.568707    1.377512
  C     -2.700027    1.278476    0.919528
  C     -2.822700    0.204419    1.790388
  C     -2.737497    0.385571    3.178766
  N     -2.809262   -0.681584    4.064995
  C     -3.131015   -1.991689    3.508694
  C     -3.002716   -3.143151    4.491284
  C     -3.232018   -0.417005    5.433923
  C     -4.717486   -0.101810    5.573044
  C     -2.551769    1.707692    3.634197
  C     -2.438188    2.761547    2.753879
  H     -5.489229    5.117642    0.485672
  H     -5.052107    3.416996    0.636964
  H     -4.838856    4.246844   -0.923131
  H     -4.578777    7.243991   -0.131542
  H     -3.133278    9.183308   -0.688214
  H     -0.683194    8.961861   -0.679350
  H      0.387888    6.794406   -0.115248
  H      0.896080    4.539325    0.497765
  H      0.105847    3.797917   -0.912525
  H      0.163353    2.943858    0.647906
  H     -2.429920    3.326333   -0.613708
  H     -2.769023    1.095943   -0.148592
  H     -2.991481   -0.774509    1.367533
  H     -4.140754   -1.996084    3.071615
  H     -2.436486   -2.179505    2.688093
  H     -3.767531   -3.123155    5.269259
  H     -2.020976   -3.150316    4.968524
  H     -3.118153   -4.079879    3.944317
  H     -2.632179    0.396307    5.839253
  H     -2.977936   -1.284419    6.039972
  H     -4.990136    0.775022    4.982155
  H     -4.968783    0.101101    6.615962
  H     -5.329621   -0.941391    5.235647
  H     -2.489202    1.920253    4.691565
  H     -2.292575    3.763686    3.141690

 Multiplicity           Mult            ....    1
 Number of Electrons    NEL             ....  160
 Basis Dimension        Dim             ....  832

ORBITAL ENERGIES
----------------

  NO   OCC          E(Eh)            E(eV)
   0   2.0000     -14.431935      -392.7129
   1   2.0000     -14.431593      -392.7036
   2   2.0000     -14.431580      -392.7033
   3   2.0000     -10.341413      -281.4042
   4   2.0000     -10.319153      -280.7984
   5   2.0000     -10.302502      -280.3453
   6   2.0000     -10.302229      -280.3379
   7   2.0000     -10.301993      -280.3315
   8   2.0000     -10.299024      -280.2507
   9   2.0000     -10.293468      -280.0995
  10   2.0000     -10.292971      -280.0860
  11   2.0000     -10.276289      -279.6320
  12   2.0000     -10.273675      -279.5609
  13   2.0000     -10.268903      -279.4310
  14   2.0000     -10.268717      -279.4260
  15   2.0000     -10.267402      -279.3902
  16   2.0000     -10.267363      -279.3892
  17   2.0000     -10.267093      -279.3818
  18   2.0000     -10.265719      -279.3444
  19   2.0000     -10.263768      -279.2913
  20   2.0000     -10.263159      -279.2748
  21   2.0000     -10.259771      -279.1826
  22   2.0000      -1.118120       -30.4256
  23   2.0000      -1.067302       -29.0428
  24   2.0000      -1.021009       -27.7831
  25   2.0000      -0.974904       -26.5285
  26   2.0000      -0.957980       -26.0680
  27   2.0000      -0.891571       -24.2609
  28   2.0000      -0.885851       -24.1052
  29   2.0000      -0.864177       -23.5155
  30   2.0000      -0.859358       -23.3843
  31   2.0000      -0.855107       -23.2686
  32   2.0000      -0.848412       -23.0865
  33   2.0000      -0.813330       -22.1318
  34   2.0000      -0.779252       -21.2045
  35   2.0000      -0.762261       -20.7422
  36   2.0000      -0.754855       -20.5407
  37   2.0000      -0.712716       -19.3940
  38   2.0000      -0.709077       -19.2950
  39   2.0000      -0.695544       -18.9267
  40   2.0000      -0.685337       -18.6490
  41   2.0000      -0.666288       -18.1306
  42   2.0000      -0.636433       -17.3182
  43   2.0000      -0.613047       -16.6818
  44   2.0000      -0.607784       -16.5386
  45   2.0000      -0.600342       -16.3361
  46   2.0000      -0.588755       -16.0209
  47   2.0000      -0.586046       -15.9471
  48   2.0000      -0.567179       -15.4337
  49   2.0000      -0.547475       -14.8976
  50   2.0000      -0.544849       -14.8261
  51   2.0000      -0.535843       -14.5810
  52   2.0000      -0.533620       -14.5205
  53   2.0000      -0.532043       -14.4776
  54   2.0000      -0.527023       -14.3410
  55   2.0000      -0.520188       -14.1550
  56   2.0000      -0.516845       -14.0641
  57   2.0000      -0.512214       -13.9381
  58   2.0000      -0.507777       -13.8173
  59   2.0000      -0.497009       -13.5243
  60   2.0000      -0.485724       -13.2172
  61   2.0000      -0.482764       -13.1367
  62   2.0000      -0.477330       -12.9888
  63   2.0000      -0.473043       -12.8722
  64   2.0000      -0.469228       -12.7683
  65   2.0000      -0.468077       -12.7370
  66   2.0000      -0.457560       -12.4508
  67   2.0000      -0.449377       -12.2282
  68   2.0000      -0.445002       -12.1091
  69   2.0000      -0.443381       -12.0650
  70   2.0000      -0.435897       -11.8614
  71   2.0000      -0.430914       -11.7258
  72   2.0000      -0.416867       -11.3435
  73   2.0000      -0.382893       -10.4191
  74   2.0000      -0.381481       -10.3806
  75   2.0000      -0.376036       -10.2325
  76   2.0000      -0.341317        -9.2877
  77   2.0000      -0.309674        -8.4267
  78   2.0000      -0.277587        -7.5535
  79   2.0000      -0.259523        -7.0620
  80   0.0000       0.062483         1.7002
  81   0.0000       0.072744         1.9795
  82   0.0000       0.075616         2.0576
  83   0.0000       0.088904         2.4192
  84   0.0000       0.110144         2.9972

MULLIKEN ATOMIC CHARGES
-----------------------
   0 C :   -0.328065
   1 N :   -0.106096
   2 C :    0.072628
   3 C :   -0.262870
   4 C :   -0.169483
   5 C :   -0.165423
   6 C :   -0.268263
   7 C :    0.076385
   8 N :   -0.108950
   9 C :   -0.326330
  10 C :    0.127613
  11 C :    0.034997
  12 C :   -0.212881
  13 C :   -0.311856
  14 C :    0.310545
  15 N :   -0.104328
  16 C :   -0.142060
  17 C :   -0.425755
  18 C :   -0.187034
  19 C :   -0.376080
  20 C :   -0.333126
  21 C :   -0.248631
  22 H :    0.150720
  23 H :    0.154666
  24 H :    0.124989
  25 H :    0.151062
  26 H :    0.136460
  27 H :    0.141420
  28 H :    0.151053
  29 H :    0.149055
  30 H :    0.123218
  31 H :    0.157000
  32 H :    0.088318
  33 H :    0.142956
  34 H :    0.149365
  35 H :    0.125709
  36 H :    0.125822
  37 H :    0.139829
  38 H :    0.139667
  39 H :    0.141703
  40 H :    0.135553
  41 H :    0.147043
  42 H :    0.139423
  43 H :    0.130562
  44 H :    0.129483
  45 H :    0.142150
  46 H :    0.137836
Sum of atomic charges:   -0.0000000

LOEWDIN ATOMIC CHARGES
----------------------
   0 C :   -0.297288
   1 N :    0.175080
   2 C :   -0.173103
   3 C :   -0.142908
   4 C :   -0.175291
   5 C :   -0.175481
   6 C :   -0.143024
   7 C :   -0.172754
   8 N :    0.175482
   9 C :   -0.296729
  10 C :   -0.221703
  11 C :   -0.167991
  12 C :   -0.121480
  13 C :   -0.147608
  14 C :   -0.184766
  15 N :    0.168912
  16 C :   -0.295935
  17 C :   -0.312309
  18 C :   -0.294815
  19 C :   -0.309821
  20 C :   -0.133503
  21 C :   -0.107034
  22 H :    0.124599
  23 H :    0.125982
  24 H :    0.111896
  25 H :    0.149491
  26 H :    0.146025
  27 H :    0.146758
  28 H :    0.149515
  29 H :    0.124352
  30 H :    0.111746
  31 H :    0.126357
  32 H :    0.140344
  33 H :    0.154233
  34 H :    0.151124
  35 H :    0.128952
  36 H :    0.139288
  37 H :    0.119798
  38 H :    0.125118
  39 H :    0.128665
  40 H :    0.134526
  41 H :    0.138310
  42 H :    0.123890
  43 H :    0.124115
  44 H :    0.121617
  45 H :    0.151433
  46 H :    0.155935

  Mayer bond orders larger than 0.100000
B(  0-C ,  1-N ) :   0.9489 B(  0-C , 22-H ) :   0.9663 B(  0-C , 23-H ) :   0.9679
B(  0-C , 24-H ) :   0.9627 B(  1-N ,  2-C ) :   1.1390 B(  1-N , 10-C ) :   0.9816
B(  2-C ,  3-C ) :   1.4009 B(  2-C ,  7-C ) :   1.2654 B(  3-C ,  4-C ) :   1.3639
B(  3-C , 25-H ) :   0.9703 B(  4-C ,  5-C ) :   1.4737 B(  4-C , 26-H ) :   0.9869
B(  5-C ,  6-C ) :   1.3595 B(  5-C , 27-H ) :   0.9864 B(  6-C ,  7-C ) :   1.4001
B(  6-C , 28-H ) :   0.9702 B(  7-C ,  8-N ) :   1.1330 B(  8-N ,  9-C ) :   0.9439
B(  8-N , 10-C ) :   0.9935 B(  9-C , 29-H ) :   0.9670 B(  9-C , 30-H ) :   0.9625
B(  9-C , 31-H ) :   0.9692 B( 10-C , 11-C ) :   0.8850 B( 10-C , 32-H ) :   0.9806
B( 11-C , 12-C ) :   1.3418 B( 11-C , 21-C ) :   1.3133 B( 12-C , 13-C ) :   1.4816
B( 12-C , 33-H ) :   0.9805 B( 13-C , 14-C ) :   1.2779 B( 13-C , 34-H ) :   0.9800
B( 14-C , 15-N ) :   1.2327 B( 14-C , 20-C ) :   1.2275 B( 15-N , 16-C ) :   0.9594
B( 15-N , 18-C ) :   0.9284 B( 16-C , 17-C ) :   0.9607 B( 16-C , 35-H ) :   0.9606
B( 16-C , 36-H ) :   0.9525 B( 17-C , 37-H ) :   0.9795 B( 17-C , 38-H ) :   0.9767
B( 17-C , 39-H ) :   0.9727 B( 18-C , 19-C ) :   0.9631 B( 18-C , 40-H ) :   0.9641
B( 18-C , 41-H ) :   0.9727 B( 19-C , 42-H ) :   0.9724 B( 19-C , 43-H ) :   0.9763
B( 19-C , 44-H ) :   0.9695 B( 20-C , 21-C ) :   1.5403 B( 20-C , 45-H ) :   0.9757
B( 21-C , 46-H ) :   0.9971

Dispersion correction           -0.022009407
FINAL SINGLE POINT ENERGY      -903.402862007318

DIPOLE MOMENT
-------------
                                X             Y             Z
Electronic contribution:      5.52241      19.42369     -10.41563
Nuclear contribution   :     -5.92857     -21.29082      10.85683
                        -----------------------------------------
Total Dipole Moment    :     -0.40616      -1.86713       0.44120
                        -----------------------------------------
Magnitude (a.u.)       :      1.96107
Magnitude (Debye)      :      4.98464

Rotational constants in cm-1:     0.027433     0.003872     0.003736
Rotational constants in MHz :   822.427872   116.088859   111.998688

                             ****ORCA TERMINATED NORMALLY****
TOTAL RUN TIME: 1 days 17 hours 5 minutes 51 seconds 333 msec
