                         Program Version 4.2.1 -  RELEASE  -
|  1> # avogadro generated ORCA input file
|  2> # Basic Mode
|  3> #
|  4> ! wB97X-D3 OPT def2-TZVP def2/J CPCM
|  5> %cpcm
|  6>   epsilon 3
|  7> end
|  8> %pal
|  9>  nprocs 4
| 10> end
| 11>
| 12> * xyz 0 1
| 13>    C       -7.19042       -2.14040        0.00062
| 14>    C       -6.97821       -3.52681        0.00084
| 15>    C       -6.09935       -1.26044        0.00031
| 16>    H       -8.19968       -1.74883        0.00063
| 17>    C       -5.67296       -4.03757        0.00078
| 18>    H       -7.82431       -4.20188        0.00100
| 19>    C       -4.79713       -1.79756        0.00006
| 20>    H       -6.30188       -0.20184        0.00003
| 21>    C       -4.59047       -3.13630        0.00029
| 22>    H       -5.52697       -5.10887        0.00089
| 23>    N       -3.55799       -1.12222       -0.00066
| 24>    N       -3.20585       -3.44360       -0.00010
| 25>    C       -2.43547       -2.15153       -0.00369
| 26>    C       -0.77207       -2.05872       -0.00064
| 27>    H       -2.06587       -1.24392       -0.00610
| 28>    C        1.39540       -0.73019        0.00070
| 29>    C        0.08748       -3.19257        0.00060
| 30>    C        2.14853       -1.89354        0.00116
| 31>    C        0.00489       -0.79551       -0.00000
| 32>    H       -0.50514        0.16207       -0.00070
| 33>    H        1.87975        0.23893        0.00056
| 34>    C        1.48819       -3.11615        0.00139
| 35>    H        2.06767       -4.03280        0.00188
| 36>    H       -0.22599       -4.18148        0.00063
| 37>    C        3.64931       -1.84279        0.00123
| 38>    H        4.02334       -0.79634        0.00081
| 39>    H        4.04174       -2.35346       -0.90323
| 40>    H        4.04175       -2.35292        0.90595
| 41>    C       -3.49692        0.37097        0.00072
| 42>    H       -4.48463        0.85914        0.00212
| 43>    H       -2.95459        0.71957       -0.90371
| 44>    H       -2.95271        0.71786        0.90464
| 45>    C       -2.85997       -4.86201        0.00048
| 46>    H       -1.83838       -5.16712       -0.00182
| 47>    H       -3.29866       -5.34222       -0.90042
| 48>    H       -3.29604       -5.34113        0.90321
| 49> *
| 50>
| 51>
| 52>                          ****END OF INPUT****
 Total Charge           Charge          ....    0
 Multiplicity           Mult            ....    1
 Number of Electrons    NEL             ....  128
Dispersion correction           -0.014389557
FINAL SINGLE POINT ENERGY      -729.721444256002
Dispersion correction            ... done
Dispersion correction           -0.014539433
FINAL SINGLE POINT ENERGY      -729.766506052374
Dispersion correction            ... done
Dispersion correction           -0.014593614
FINAL SINGLE POINT ENERGY      -729.796400533079
Dispersion correction            ... done
FINAL SINGLE POINT ENERGY      -729.824349776602
FINAL SINGLE POINT ENERGY      -729.848387975927
FINAL SINGLE POINT ENERGY      -729.865393779140
FINAL SINGLE POINT ENERGY      -729.877353707148
FINAL SINGLE POINT ENERGY      -729.889173115206
FINAL SINGLE POINT ENERGY      -729.900508058520
FINAL SINGLE POINT ENERGY      -729.910210442602
FINAL SINGLE POINT ENERGY      -730.028474322046
FINAL SINGLE POINT ENERGY      -730.028536619689
FINAL SINGLE POINT ENERGY      -730.028558917570
FINAL SINGLE POINT ENERGY      -730.028582267877
FINAL SINGLE POINT ENERGY      -730.028597236026
FINAL SINGLE POINT ENERGY      -730.028590890990
FINAL SINGLE POINT ENERGY      -730.028592779622
Dispersion correction            ... done
Dispersion correction           -0.014549278
FINAL SINGLE POINT ENERGY      -730.028605386467
Dispersion correction            ... done
Dispersion correction           -0.014549671
FINAL SINGLE POINT ENERGY      -730.028600776057
Dispersion correction            ... done
                    ***********************HURRAY********************

CARTESIAN COORDINATES (ANGSTROEM)
---------------------------------
  C     -7.007310   -2.289623    0.043797
  C     -6.671676   -3.466461   -0.636296
  C     -6.053863   -1.396753    0.468571
  H     -8.051967   -2.070620    0.241912
  C     -5.333445   -3.738227   -0.847117
  H     -7.434905   -4.155192   -0.973356
  C     -4.658046   -1.582934    0.194825
  H     -6.362679   -0.496921    0.985184
  C     -4.355895   -2.845542   -0.438361
  H     -5.041667   -4.659625   -1.339693
  N     -3.687591   -0.738776    0.472823
  N     -2.976049   -3.192776   -0.482361
  C     -2.132539   -2.239075   -0.752063
  C     -0.697515   -2.234193   -0.497401
  H     -2.526426   -1.420259   -1.331130
  C      1.491306   -1.555565   -1.255929
  C     -0.112279   -2.743994    0.664682
  C      2.080775   -2.079932   -0.110809
  C      0.120318   -1.614587   -1.440381
  H     -0.323345   -1.181749   -2.329782
  H      2.110990   -1.082993   -2.009324
  C      1.252968   -2.663048    0.849862
  H      1.688219   -3.052455    1.763710
  H     -0.729804   -3.172042    1.443050
  C      3.565335   -2.010000    0.104725
  H      4.062831   -1.504701   -0.722728
  H      3.990426   -3.011454    0.198991
  H      3.797882   -1.470111    1.024945
  C     -3.995876    0.378892    1.326931
  H     -4.679763    1.099800    0.852615
  H     -3.076335    0.918684    1.562604
  H     -4.459554    0.085622    2.282688
  C     -2.587542   -4.486062    0.074023
  H     -1.566029   -4.722161   -0.210118
  H     -3.254902   -5.242403   -0.328792
  H     -2.687657   -4.474945    1.160163

 Multiplicity           Mult            ....    1
 Number of Electrons    NEL             ....  128
 Basis Dimension        Dim             ....  666

ORBITAL ENERGIES
----------------

  NO   OCC          E(Eh)            E(eV)
   0   2.0000     -14.504577      -394.6896
   1   2.0000     -14.350531      -390.4978
   2   2.0000     -10.357857      -281.8516
   3   2.0000     -10.317171      -280.7445
   4   2.0000     -10.305980      -280.4400
   5   2.0000     -10.304433      -280.3979
   6   2.0000     -10.297025      -280.1963
   7   2.0000     -10.296531      -280.1829
   8   2.0000     -10.293649      -280.1044
   9   2.0000     -10.293052      -280.0882
  10   2.0000     -10.287560      -279.9387
  11   2.0000     -10.287077      -279.9256
  12   2.0000     -10.274253      -279.5766
  13   2.0000     -10.272128      -279.5188
  14   2.0000     -10.263844      -279.2934
  15   2.0000     -10.263727      -279.2902
  16   2.0000     -10.247839      -278.8579
  17   2.0000     -10.247035      -278.8360
  18   2.0000      -1.125909       -30.6375
  19   2.0000      -1.003311       -27.3015
  20   2.0000      -0.996655       -27.1204
  21   2.0000      -0.942452       -25.6454
  22   2.0000      -0.920886       -25.0586
  23   2.0000      -0.881891       -23.9975
  24   2.0000      -0.869644       -23.6642
  25   2.0000      -0.859746       -23.3949
  26   2.0000      -0.833045       -22.6683
  27   2.0000      -0.814667       -22.1682
  28   2.0000      -0.766658       -20.8618
  29   2.0000      -0.743105       -20.2209
  30   2.0000      -0.737196       -20.0601
  31   2.0000      -0.705875       -19.2078
  32   2.0000      -0.685140       -18.6436
  33   2.0000      -0.673413       -18.3245
  34   2.0000      -0.637467       -17.3464
  35   2.0000      -0.627965       -17.0878
  36   2.0000      -0.599219       -16.3056
  37   2.0000      -0.580563       -15.7979
  38   2.0000      -0.576339       -15.6830
  39   2.0000      -0.568477       -15.4691
  40   2.0000      -0.552255       -15.0276
  41   2.0000      -0.543382       -14.7862
  42   2.0000      -0.533410       -14.5148
  43   2.0000      -0.532695       -14.4954
  44   2.0000      -0.527695       -14.3593
  45   2.0000      -0.524097       -14.2614
  46   2.0000      -0.512329       -13.9412
  47   2.0000      -0.502776       -13.6812
  48   2.0000      -0.498879       -13.5752
  49   2.0000      -0.490353       -13.3432
  50   2.0000      -0.480178       -13.0663
  51   2.0000      -0.468734       -12.7549
  52   2.0000      -0.462761       -12.5924
  53   2.0000      -0.456042       -12.4095
  54   2.0000      -0.446666       -12.1544
  55   2.0000      -0.445590       -12.1251
  56   2.0000      -0.435793       -11.8585
  57   2.0000      -0.413271       -11.2457
  58   2.0000      -0.366340        -9.9686
  59   2.0000      -0.358417        -9.7530
  60   2.0000      -0.354495        -9.6463
  61   2.0000      -0.323739        -8.8094
  62   2.0000      -0.307748        -8.3742
  63   2.0000      -0.233686        -6.3589
  64   0.0000      -0.005353        -0.1457
  65   0.0000       0.048958         1.3322
  66   0.0000       0.070742         1.9250
  67   0.0000       0.101206         2.7540
  68   0.0000       0.105124         2.8606

MULLIKEN ATOMIC CHARGES
-----------------------
   0 C :   -0.134659
   1 C :   -0.231661
   2 C :   -0.347194
   3 H :    0.137109
   4 C :   -0.264236
   5 H :    0.136221
   6 C :    0.219314
   7 H :    0.140876
   8 C :    0.072461
   9 H :    0.147927
  10 N :   -0.460164
  11 N :    0.034370
  12 C :    0.032787
  13 C :    0.160810
  14 H :    0.194861
  15 C :   -0.241754
  16 C :   -0.205852
  17 C :    0.146716
  18 C :   -0.194565
  19 H :    0.153707
  20 H :    0.151180
  21 C :   -0.217534
  22 H :    0.148828
  23 H :    0.178059
  24 C :   -0.393974
  25 H :    0.140129
  26 H :    0.149449
  27 H :    0.151966
  28 C :   -0.313098
  29 H :    0.111581
  30 H :    0.121544
  31 H :    0.102013
  32 C :   -0.350999
  33 H :    0.180748
  34 H :    0.162450
  35 H :    0.180583
Sum of atomic charges:    0.0000000

LOEWDIN ATOMIC CHARGES
----------------------
   0 C :   -0.163869
   1 C :   -0.218593
   2 C :   -0.166553
   3 H :    0.147310
   4 C :   -0.143853
   5 H :    0.141311
   6 C :   -0.262831
   7 H :    0.146309
   8 C :   -0.170188
   9 H :    0.151809
  10 N :   -0.028289
  11 N :    0.276615
  12 C :   -0.049722
  13 C :   -0.157244
  14 H :    0.175033
  15 C :   -0.113170
  16 C :   -0.092028
  17 C :   -0.156661
  18 C :   -0.084442
  19 H :    0.160231
  20 H :    0.155693
  21 C :   -0.107993
  22 H :    0.156694
  23 H :    0.160278
  24 C :   -0.251079
  25 H :    0.131202
  26 H :    0.136122
  27 H :    0.136535
  28 C :   -0.379902
  29 H :    0.103471
  30 H :    0.106603
  31 H :    0.099926
  32 C :   -0.236345
  33 H :    0.133739
  34 H :    0.131964
  35 H :    0.131916

  Mayer bond orders larger than 0.100000
B(  0-C ,  1-C ) :   1.3119 B(  0-C ,  2-C ) :   1.5413 B(  0-C ,  3-H ) :   0.9768
B(  1-C ,  4-C ) :   1.4706 B(  1-C ,  5-H ) :   0.9983 B(  2-C ,  6-C ) :   1.1665
B(  2-C ,  7-H ) :   0.9780 B(  4-C ,  8-C ) :   1.4002 B(  4-C ,  9-H ) :   0.9652
B(  6-C ,  8-C ) :   1.1628 B(  6-C , 10-N ) :   1.5948 B(  8-C , 11-N ) :   0.9448
B( 10-N , 12-C ) :   0.1763 B( 10-N , 28-C ) :   1.0053 B( 11-N , 12-C ) :   1.5712
B( 11-N , 32-C ) :   0.9001 B( 12-C , 13-C ) :   0.9628 B( 12-C , 14-H ) :   0.9292
B( 13-C , 16-C ) :   1.3011 B( 13-C , 18-C ) :   1.3367 B( 15-C , 17-C ) :   1.3928
B( 15-C , 18-C ) :   1.4350 B( 15-C , 20-H ) :   0.9716 B( 16-C , 21-C ) :   1.4586
B( 16-C , 23-H ) :   0.9707 B( 17-C , 21-C ) :   1.3311 B( 17-C , 24-C ) :   0.9275
B( 18-C , 19-H ) :   0.9874 B( 21-C , 22-H ) :   0.9831 B( 24-C , 25-H ) :   0.9879
B( 24-C , 26-H ) :   0.9641 B( 24-C , 27-H ) :   0.9679 B( 28-C , 29-H ) :   0.9654
B( 28-C , 30-H ) :   0.9815 B( 28-C , 31-H ) :   0.9728 B( 32-C , 33-H ) :   0.9560
B( 32-C , 34-H ) :   0.9576 B( 32-C , 35-H ) :   0.9560

Dispersion correction           -0.014549104
FINAL SINGLE POINT ENERGY      -730.028596663066

DIPOLE MOMENT
-------------
                                X             Y             Z
Electronic contribution:     -3.69270      -2.09781      -4.24814
Nuclear contribution   :      6.52790       0.68986       3.89455
                        -----------------------------------------
Total Dipole Moment    :      2.83520      -1.40795      -0.35359
                        -----------------------------------------
Magnitude (a.u.)       :      3.18523
Magnitude (Debye)      :      8.09622

Rotational constants in cm-1:     0.035547     0.006834     0.006233
Rotational constants in MHz :  1065.686593   204.867162   186.855711

                             ****ORCA TERMINATED NORMALLY****
TOTAL RUN TIME: 0 days 22 hours 28 minutes 26 seconds 320 msec
