                         Program Version 4.2.1 -  RELEASE  -
|  1> # avogadro generated ORCA input file
|  2> # Basic Mode
|  3> #
|  4> ! wB97X-D3 OPT def2-TZVP def2/J CPCM
|  5> %cpcm
|  6>   epsilon 3
|  7> end
|  8> %pal
|  9>  nprocs 8
| 10> end
| 11>
| 12> * xyz 0 1
| 13>    F        0.99536        0.03890       -0.07505
| 14>    C        2.35667       -0.05111       -0.08645
| 15>    C        3.00887        1.19038       -0.09421
| 16>    F        2.20612        2.29444       -0.09485
| 17>    C        4.41822        1.27629       -0.09863
| 18>    C        5.14812        0.06559       -0.07378
| 19>    F        6.51187        0.03870       -0.04784
| 20>    C        4.50467       -1.18378       -0.05596
| 21>    F        5.38069       -2.21143        0.02336
| 22>    C        3.07616       -1.29284       -0.08770
| 23>    C        2.37880       -2.50586       -0.11139
| 24>    C        2.97975       -3.91193       -0.14559
| 25>    O        2.25813       -5.06292       -0.06565
| 26>    C        0.89824       -5.20290       -0.05853
| 27>    O        4.17024       -4.07101       -0.27032
| 28>    C        0.92528       -2.43797       -0.13177
| 29>    N       -0.22977       -2.34916       -0.14725
| 30>    C        5.05738        2.49332       -0.10963
| 31>    C        4.36247        3.75813       -0.11754
| 32>    N        3.81212        4.77396       -0.12389
| 33>    C        6.49315        2.63960       -0.10784
| 34>    N        7.64187        2.76346       -0.10647
| 35>    H        0.61595       -6.25493        0.02458
| 36>    H        0.47658       -4.80580       -0.99274
| 37>    H        0.46037       -4.66493        0.79031
| 38> *
| 39>
| 40>
| 41>                          ****END OF INPUT****
 Total Charge           Charge          ....    0
 Multiplicity           Mult            ....    1
 Number of Electrons    NEL             ....  154
Dispersion correction           -0.010972689
FINAL SINGLE POINT ENERGY     -1211.191480651468
Dispersion correction            ... done
Dispersion correction           -0.010973547
FINAL SINGLE POINT ENERGY     -1211.207886776281
Dispersion correction            ... done
Dispersion correction           -0.011105853
FINAL SINGLE POINT ENERGY     -1211.217745327513
Dispersion correction            ... done
FINAL SINGLE POINT ENERGY     -1211.227894774188
FINAL SINGLE POINT ENERGY     -1211.233643504414
FINAL SINGLE POINT ENERGY     -1211.238580339906
FINAL SINGLE POINT ENERGY     -1211.242744173535
FINAL SINGLE POINT ENERGY     -1211.245913877276
FINAL SINGLE POINT ENERGY     -1211.248489185171
FINAL SINGLE POINT ENERGY     -1211.250315978481
FINAL SINGLE POINT ENERGY     -1211.252503844916
FINAL SINGLE POINT ENERGY     -1211.252521894835
FINAL SINGLE POINT ENERGY     -1211.252528411416
FINAL SINGLE POINT ENERGY     -1211.252541622836
FINAL SINGLE POINT ENERGY     -1211.252619857295
FINAL SINGLE POINT ENERGY     -1211.252578346441
FINAL SINGLE POINT ENERGY     -1211.252521206397
Dispersion correction            ... done
Dispersion correction           -0.012250020
FINAL SINGLE POINT ENERGY     -1211.252589436827
Dispersion correction            ... done
Dispersion correction           -0.012255003
FINAL SINGLE POINT ENERGY     -1211.252591615235
Dispersion correction            ... done
                    ***********************HURRAY********************

CARTESIAN COORDINATES (ANGSTROEM)
---------------------------------
  F      0.818969    0.140731   -0.878327
  C      2.099609   -0.011250   -0.600548
  C      2.831068    1.065916   -0.290819
  F      2.246256    2.251313   -0.271979
  C      4.245694    0.993171    0.023909
  C      4.802791   -0.346482   -0.019043
  F      6.080324   -0.505878    0.277258
  C      4.069921   -1.420775   -0.330165
  F      4.638932   -2.615719   -0.318702
  C      2.657824   -1.350874   -0.660327
  C      1.944162   -2.447923   -0.986233
  C      2.550073   -3.830308   -1.209629
  O      2.528411   -4.690172   -0.211030
  C      2.075463   -4.296581    1.095052
  O      2.959324   -4.122789   -2.294205
  C      0.545838   -2.439012   -1.268570
  N     -0.576793   -2.554146   -1.483538
  C      4.988362    2.088054    0.339052
  C      4.466484    3.420723    0.405009
  N      4.137248    4.517299    0.485895
  C      6.386454    2.047242    0.649855
  N      7.502962    2.109623    0.908626
  H      2.095521   -5.204567    1.689297
  H      1.057896   -3.909210    1.057473
  H      2.754515   -3.562188    1.526860

 Multiplicity           Mult            ....    1
 Number of Electrons    NEL             ....  154
 Basis Dimension        Dim             ....  700

ORBITAL ENERGIES
----------------

  NO   OCC          E(Eh)            E(eV)
   0   2.0000     -24.864104      -676.5867
   1   2.0000     -24.859344      -676.4571
   2   2.0000     -24.857970      -676.4197
   3   2.0000     -24.855947      -676.3647
   4   2.0000     -19.318281      -525.6771
   5   2.0000     -19.258129      -524.0403
   6   2.0000     -14.461521      -393.5180
   7   2.0000     -14.456024      -393.3684
   8   2.0000     -14.455878      -393.3644
   9   2.0000     -10.459228      -284.6101
  10   2.0000     -10.437665      -284.0233
  11   2.0000     -10.436955      -284.0040
  12   2.0000     -10.435482      -283.9639
  13   2.0000     -10.433389      -283.9070
  14   2.0000     -10.405925      -283.1596
  15   2.0000     -10.402882      -283.0768
  16   2.0000     -10.395396      -282.8731
  17   2.0000     -10.393238      -282.8144
  18   2.0000     -10.359585      -281.8987
  19   2.0000     -10.356819      -281.8234
  20   2.0000     -10.356723      -281.8208
  21   2.0000     -10.353826      -281.7419
  22   2.0000      -1.425146       -38.7802
  23   2.0000      -1.422127       -38.6980
  24   2.0000      -1.407442       -38.2984
  25   2.0000      -1.404609       -38.2213
  26   2.0000      -1.268515       -34.5181
  27   2.0000      -1.183112       -32.1941
  28   2.0000      -1.083439       -29.4819
  29   2.0000      -1.073516       -29.2119
  30   2.0000      -1.062033       -28.8994
  31   2.0000      -1.057776       -28.7835
  32   2.0000      -1.016927       -27.6720
  33   2.0000      -0.968359       -26.3504
  34   2.0000      -0.941967       -25.6322
  35   2.0000      -0.889166       -24.1954
  36   2.0000      -0.873763       -23.7763
  37   2.0000      -0.828557       -22.5462
  38   2.0000      -0.813788       -22.1443
  39   2.0000      -0.773409       -21.0455
  40   2.0000      -0.748108       -20.3571
  41   2.0000      -0.735681       -20.0189
  42   2.0000      -0.732301       -19.9269
  43   2.0000      -0.701938       -19.1007
  44   2.0000      -0.693217       -18.8634
  45   2.0000      -0.674389       -18.3511
  46   2.0000      -0.672123       -18.2894
  47   2.0000      -0.671361       -18.2687
  48   2.0000      -0.667425       -18.1615
  49   2.0000      -0.650792       -17.7089
  50   2.0000      -0.631517       -17.1844
  51   2.0000      -0.624592       -16.9960
  52   2.0000      -0.620925       -16.8962
  53   2.0000      -0.615040       -16.7361
  54   2.0000      -0.614308       -16.7162
  55   2.0000      -0.590988       -16.0816
  56   2.0000      -0.560967       -15.2647
  57   2.0000      -0.558990       -15.2109
  58   2.0000      -0.555591       -15.1184
  59   2.0000      -0.553623       -15.0648
  60   2.0000      -0.536115       -14.5884
  61   2.0000      -0.534732       -14.5508
  62   2.0000      -0.528214       -14.3734
  63   2.0000      -0.509930       -13.8759
  64   2.0000      -0.508680       -13.8419
  65   2.0000      -0.503628       -13.7044
  66   2.0000      -0.494522       -13.4566
  67   2.0000      -0.491132       -13.3644
  68   2.0000      -0.478881       -13.0310
  69   2.0000      -0.478374       -13.0172
  70   2.0000      -0.473981       -12.8977
  71   2.0000      -0.462970       -12.5980
  72   2.0000      -0.444979       -12.1085
  73   2.0000      -0.432943       -11.7810
  74   2.0000      -0.416885       -11.3440
  75   2.0000      -0.393236       -10.7005
  76   2.0000      -0.345847        -9.4110
  77   0.0000      -0.109793        -2.9876
  78   0.0000       0.012347         0.3360
  79   0.0000       0.035194         0.9577
  80   0.0000       0.038776         1.0551
  81   0.0000       0.051760         1.4084

MULLIKEN ATOMIC CHARGES
-----------------------
   0 F :   -0.158887
   1 C :    0.242008
   2 C :    0.280170
   3 F :   -0.162685
   4 C :   -0.166502
   5 C :    0.238298
   6 F :   -0.161613
   7 C :    0.275305
   8 F :   -0.162128
   9 C :   -0.090730
  10 C :    0.082181
  11 C :    0.344555
  12 O :   -0.201992
  13 C :   -0.225553
  14 O :   -0.314471
  15 C :   -0.180213
  16 N :   -0.027245
  17 C :    0.433842
  18 C :   -0.234297
  19 N :   -0.039387
  20 C :   -0.231671
  21 N :   -0.039390
  22 H :    0.182803
  23 H :    0.161856
  24 H :    0.155744
Sum of atomic charges:   -0.0000000

LOEWDIN ATOMIC CHARGES
----------------------
   0 F :    0.274528
   1 C :   -0.190842
   2 C :   -0.198105
   3 F :    0.268393
   4 C :   -0.009116
   5 C :   -0.196159
   6 F :    0.270590
   7 C :   -0.193832
   8 F :    0.271267
   9 C :   -0.040639
  10 C :   -0.053224
  11 C :   -0.467421
  12 O :    0.287180
  13 C :   -0.278240
  14 O :    0.142747
  15 C :   -0.146240
  16 N :    0.088007
  17 C :   -0.092895
  18 C :   -0.133958
  19 N :    0.080336
  20 C :   -0.134302
  21 N :    0.080084
  22 H :    0.129806
  23 H :    0.123301
  24 H :    0.118734

  Mayer bond orders larger than 0.100000
B(  0-F ,  1-C ) :   1.0143 B(  1-C ,  2-C ) :   1.7349 B(  1-C ,  9-C ) :   1.0922
B(  2-C ,  3-F ) :   1.0111 B(  2-C ,  4-C ) :   1.0640 B(  4-C ,  5-C ) :   1.0722
B(  4-C , 17-C ) :   1.5644 B(  5-C ,  6-F ) :   1.0265 B(  5-C ,  7-C ) :   1.7350
B(  7-C ,  8-F ) :   1.0122 B(  7-C ,  9-C ) :   1.0285 B(  9-C , 10-C ) :   1.6215
B( 10-C , 11-C ) :   0.8885 B( 10-C , 15-C ) :   0.9973 B( 11-C , 12-O ) :   1.2763
B( 11-C , 14-O ) :   2.0645 B( 12-O , 13-C ) :   0.8712 B( 13-C , 22-H ) :   0.9619
B( 13-C , 23-H ) :   0.9556 B( 13-C , 24-H ) :   0.9610 B( 15-C , 16-N ) :   2.9660
B( 17-C , 18-C ) :   0.9519 B( 17-C , 20-C ) :   0.9479 B( 18-C , 19-N ) :   2.9847
B( 20-C , 21-N ) :   2.9854

Dispersion correction           -0.012258294
FINAL SINGLE POINT ENERGY     -1211.252590925339

DIPOLE MOMENT
-------------
                                X             Y             Z
Electronic contribution:      3.64065      10.48769      -3.38731
Nuclear contribution   :     -4.25650     -11.84110       4.81923
                        -----------------------------------------
Total Dipole Moment    :     -0.61585      -1.35340       1.43191
                        -----------------------------------------
Magnitude (a.u.)       :      2.06430
Magnitude (Debye)      :      5.24704

Rotational constants in cm-1:     0.017474     0.006417     0.005002
Rotational constants in MHz :   523.866929   192.372524   149.962886

                             ****ORCA TERMINATED NORMALLY****
TOTAL RUN TIME: 0 days 15 hours 2 minutes 53 seconds 928 msec
