                         Program Version 4.2.1 -  RELEASE  -
|  1> # avogadro generated ORCA input file
|  2> # Basic Mode
|  3> #
|  4> ! wB97X-D3 OPT def2-TZVP def2/J CPCM
|  5> %cpcm
|  6>   epsilon 3
|  7> end
|  8> %pal
|  9>  nprocs 4
| 10> end
| 11>
| 12> * xyz 0 1
| 13>    C        3.56415        7.56100        1.64462
| 14>    O        2.76470        6.44499        1.77983
| 15>    H        3.30421        8.29106        2.43826
| 16>    H        3.39412        8.03761        0.65565
| 17>    H        4.63393        7.28297        1.75571
| 18>    C        2.79806        5.34330        0.98605
| 19>    C        1.91149        4.29895        1.26410
| 20>    C        3.68468        5.21455       -0.09912
| 21>    C        3.67683        4.05871       -0.88424
| 22>    H        4.38403        6.00173       -0.34671
| 23>    C        1.90073        3.14214        0.48013
| 24>    H        1.22334        4.38356        2.09609
| 25>    C        2.78779        3.00172       -0.61005
| 26>    H        4.36757        3.99232       -1.71537
| 27>    H        1.19667        2.36414        0.74151
| 28>    C        2.81793        1.76228       -1.50157
| 29>    C        4.16522        1.10008       -1.41076
| 30>    C        1.69168        0.80671       -1.21862
| 31>    H        2.67656        2.08862       -2.55468
| 32>    C        4.35414       -0.17928       -1.01839
| 33>    H        5.00705        1.71302       -1.70817
| 34>    C        1.86427       -0.47392       -0.82628
| 35>    H        0.69871        1.21426       -1.37151
| 36>    N        3.20849       -0.99200       -0.65335
| 37>    C        3.41099       -2.09648        0.28515
| 38>    H        3.47823       -3.07037       -0.23468
| 39>    H        2.59439       -2.13821        1.03679
| 40>    H        4.32815       -1.94411        0.89245
| 41>    C        5.76977       -0.71897       -0.99080
| 42>    C        6.87747        0.12973       -0.74789
| 43>    C        8.18128       -0.37429       -0.73138
| 44>    H        6.75119        1.18413       -0.54739
| 45>    C        6.03428       -2.08477       -1.23296
| 46>    C        7.34086       -2.58142       -1.21869
| 47>    H        5.24286       -2.77779       -1.46344
| 48>    C        8.41298       -1.72830       -0.96501
| 49>    H        9.01434        0.28856       -0.53523
| 50>    H        9.42368       -2.11553       -0.95420
| 51>    H        7.52186       -3.63114       -1.41141
| 52>    C        0.63206       -1.32258       -0.58927
| 53>    C       -0.58858       -0.74463       -0.16248
| 54>    C        0.65226       -2.71683       -0.81117
| 55>    C       -1.72404       -1.53242        0.04773
| 56>    H       -0.67657        0.31435        0.03425
| 57>    C       -1.67382       -2.90768       -0.17064
| 58>    H       -2.64555       -1.07363        0.38252
| 59>    C       -0.48796       -3.49819       -0.60274
| 60>    H        1.53513       -3.21499       -1.17418
| 61>    H       -0.45235       -4.56491       -0.78336
| 62>    H       -2.55515       -3.51500       -0.00968
| 63> *
| 64>
| 65>
| 66>                          ****END OF INPUT****
 Total Charge           Charge          ....    0
 Multiplicity           Mult            ....    1
 Number of Electrons    NEL             ....  188
Dispersion correction           -0.023076334
FINAL SINGLE POINT ENERGY     -1096.506757794128
Dispersion correction            ... done
Dispersion correction           -0.023451972
FINAL SINGLE POINT ENERGY     -1096.523442348982
Dispersion correction            ... done
Dispersion correction           -0.023726337
FINAL SINGLE POINT ENERGY     -1096.530688679914
Dispersion correction            ... done
FINAL SINGLE POINT ENERGY     -1096.533204748377
FINAL SINGLE POINT ENERGY     -1096.534508483296
FINAL SINGLE POINT ENERGY     -1096.535182492366
FINAL SINGLE POINT ENERGY     -1096.535655252248
FINAL SINGLE POINT ENERGY     -1096.536078617364
FINAL SINGLE POINT ENERGY     -1096.536385528457
FINAL SINGLE POINT ENERGY     -1096.536525448689
FINAL SINGLE POINT ENERGY     -1096.536793139564
FINAL SINGLE POINT ENERGY     -1096.536852470107
FINAL SINGLE POINT ENERGY     -1096.536918012263
FINAL SINGLE POINT ENERGY     -1096.535404764722
FINAL SINGLE POINT ENERGY     -1096.536858789345
FINAL SINGLE POINT ENERGY     -1096.536913168381
FINAL SINGLE POINT ENERGY     -1096.536882983085
Dispersion correction            ... done
Dispersion correction           -0.024797024
FINAL SINGLE POINT ENERGY     -1096.536888245836
Dispersion correction            ... done
Dispersion correction           -0.024815853
FINAL SINGLE POINT ENERGY     -1096.536884964540
Dispersion correction            ... done
                    ***********************HURRAY********************

CARTESIAN COORDINATES (ANGSTROEM)
---------------------------------
  C      2.717329    7.491107    1.622553
  O      3.002604    6.167597    2.030279
  H      2.741891    8.098420    2.524519
  H      1.725800    7.561228    1.166582
  H      3.466863    7.861009    0.917087
  C      3.019411    5.198727    1.079769
  C      3.288708    3.904495    1.528592
  C      2.791848    5.419752   -0.271093
  C      2.835802    4.345399   -1.156760
  H      2.582826    6.410929   -0.649409
  C      3.325143    2.855654    0.634619
  H      3.466523    3.745586    2.585496
  C      3.099448    3.056055   -0.728064
  H      2.656074    4.530736   -2.210985
  H      3.535931    1.855938    0.999735
  C      3.115114    1.885250   -1.702987
  C      4.373401    1.064115   -1.608049
  C      1.931316    0.975136   -1.500237
  H      3.053684    2.319445   -2.706160
  C      4.415907   -0.126785   -1.003447
  H      5.277614    1.452176   -2.061054
  C      2.026969   -0.211940   -0.894827
  H      0.965531    1.298092   -1.869472
  N      3.261938   -0.747058   -0.513090
  C      3.343422   -1.537787    0.713469
  H      3.333712   -2.613304    0.522699
  H      2.502560   -1.298095    1.363383
  H      4.260423   -1.295140    1.248271
  C      5.672986   -0.911073   -0.909345
  C      6.854822   -0.317894   -0.475621
  C      8.033523   -1.048466   -0.426757
  H      6.843651    0.719986   -0.163935
  C      5.691281   -2.254401   -1.281975
  C      6.867108   -2.983837   -1.233836
  H      4.775287   -2.721643   -1.625818
  C      8.043371   -2.382410   -0.804896
  H      8.945702   -0.574808   -0.083376
  H      8.962808   -2.954055   -0.763630
  H      6.867720   -4.024282   -1.536431
  C      0.838805   -1.076808   -0.684669
  C     -0.337151   -0.553974   -0.154474
  C      0.872835   -2.422790   -1.046708
  C     -1.459845   -1.354937   -0.001735
  H     -0.364199    0.485784    0.149670
  C     -1.418451   -2.691081   -0.370315
  H     -2.367765   -0.934196    0.414266
  C     -0.246984   -3.223094   -0.893636
  H      1.783039   -2.837161   -1.465545
  H     -0.208337   -4.264898   -1.189061
  H     -2.293885   -3.317650   -0.248172

 Multiplicity           Mult            ....    1
 Number of Electrons    NEL             ....  188
 Basis Dimension        Dim             ....  975

ORBITAL ENERGIES
----------------

  NO   OCC          E(Eh)            E(eV)
   0   2.0000     -19.263667      -524.1910
   1   2.0000     -14.443688      -393.0327
   2   2.0000     -10.335155      -281.2339
   3   2.0000     -10.319218      -280.8002
   4   2.0000     -10.310868      -280.5730
   5   2.0000     -10.310396      -280.5601
   6   2.0000     -10.297422      -280.2071
   7   2.0000     -10.290411      -280.0163
   8   2.0000     -10.290368      -280.0152
   9   2.0000     -10.284765      -279.8627
  10   2.0000     -10.279636      -279.7231
  11   2.0000     -10.279627      -279.7229
  12   2.0000     -10.279303      -279.7141
  13   2.0000     -10.279167      -279.7103
  14   2.0000     -10.279023      -279.7064
  15   2.0000     -10.278998      -279.7058
  16   2.0000     -10.278628      -279.6957
  17   2.0000     -10.278419      -279.6900
  18   2.0000     -10.278322      -279.6874
  19   2.0000     -10.278178      -279.6834
  20   2.0000     -10.275291      -279.6049
  21   2.0000     -10.274488      -279.5830
  22   2.0000     -10.273828      -279.5651
  23   2.0000     -10.272233      -279.5217
  24   2.0000     -10.270411      -279.4721
  25   2.0000     -10.260539      -279.2035
  26   2.0000     -10.260100      -279.1915
  27   2.0000      -1.185731       -32.2654
  28   2.0000      -1.082796       -29.4644
  29   2.0000      -0.987675       -26.8760
  30   2.0000      -0.980528       -26.6815
  31   2.0000      -0.979636       -26.6573
  32   2.0000      -0.929536       -25.2940
  33   2.0000      -0.914709       -24.8905
  34   2.0000      -0.881687       -23.9919
  35   2.0000      -0.869531       -23.6612
  36   2.0000      -0.866785       -23.5864
  37   2.0000      -0.866206       -23.5707
  38   2.0000      -0.860003       -23.4019
  39   2.0000      -0.834966       -22.7206
  40   2.0000      -0.827067       -22.5056
  41   2.0000      -0.796672       -21.6786
  42   2.0000      -0.752442       -20.4750
  43   2.0000      -0.746539       -20.3144
  44   2.0000      -0.722354       -19.6562
  45   2.0000      -0.719226       -19.5711
  46   2.0000      -0.715113       -19.4592
  47   2.0000      -0.711061       -19.3489
  48   2.0000      -0.687125       -18.6976
  49   2.0000      -0.681900       -18.5554
  50   2.0000      -0.643786       -17.5183
  51   2.0000      -0.637110       -17.3366
  52   2.0000      -0.622399       -16.9363
  53   2.0000      -0.600752       -16.3473
  54   2.0000      -0.592308       -16.1175
  55   2.0000      -0.588407       -16.0114
  56   2.0000      -0.583077       -15.8663
  57   2.0000      -0.572818       -15.5872
  58   2.0000      -0.570685       -15.5291
  59   2.0000      -0.559802       -15.2330
  60   2.0000      -0.555190       -15.1075
  61   2.0000      -0.551659       -15.0114
  62   2.0000      -0.543278       -14.7833
  63   2.0000      -0.542127       -14.7520
  64   2.0000      -0.529982       -14.4215
  65   2.0000      -0.523632       -14.2488
  66   2.0000      -0.520711       -14.1693
  67   2.0000      -0.518080       -14.0977
  68   2.0000      -0.517937       -14.0938
  69   2.0000      -0.516220       -14.0471
  70   2.0000      -0.505292       -13.7497
  71   2.0000      -0.497011       -13.5244
  72   2.0000      -0.486076       -13.2268
  73   2.0000      -0.483877       -13.1670
  74   2.0000      -0.476074       -12.9546
  75   2.0000      -0.468619       -12.7518
  76   2.0000      -0.464481       -12.6392
  77   2.0000      -0.455934       -12.4066
  78   2.0000      -0.452225       -12.3057
  79   2.0000      -0.442773       -12.0485
  80   2.0000      -0.437333       -11.9004
  81   2.0000      -0.430929       -11.7262
  82   2.0000      -0.428500       -11.6601
  83   2.0000      -0.421197       -11.4613
  84   2.0000      -0.416767       -11.3408
  85   2.0000      -0.407614       -11.0917
  86   2.0000      -0.372118       -10.1258
  87   2.0000      -0.345688        -9.4066
  88   2.0000      -0.345465        -9.4006
  89   2.0000      -0.344766        -9.3816
  90   2.0000      -0.342770        -9.3273
  91   2.0000      -0.322187        -8.7671
  92   2.0000      -0.297207        -8.0874
  93   2.0000      -0.271226        -7.3804
  94   0.0000       0.042280         1.1505
  95   0.0000       0.045386         1.2350
  96   0.0000       0.059450         1.6177
  97   0.0000       0.061259         1.6669
  98   0.0000       0.065404         1.7797

MULLIKEN ATOMIC CHARGES
-----------------------
   0 C :   -0.240483
   1 O :   -0.297690
   2 H :    0.155739
   3 H :    0.139433
   4 H :    0.141259
   5 C :    0.358829
   6 C :   -0.258453
   7 C :   -0.281298
   8 C :   -0.294282
   9 H :    0.154957
  10 C :   -0.164437
  11 H :    0.139825
  12 C :    0.067700
  13 H :    0.144010
  14 H :    0.156884
  15 C :    0.145922
  16 C :   -0.285233
  17 C :   -0.291212
  18 H :    0.103860
  19 C :    0.146848
  20 H :    0.155949
  21 C :    0.158502
  22 H :    0.155647
  23 N :   -0.063678
  24 C :   -0.357964
  25 H :    0.151055
  26 H :    0.174365
  27 H :    0.174763
  28 C :    0.016593
  29 C :   -0.265640
  30 C :   -0.150434
  31 H :    0.162504
  32 C :   -0.236410
  33 C :   -0.151018
  34 H :    0.173977
  35 C :   -0.141869
  36 H :    0.144641
  37 H :    0.152219
  38 H :    0.145627
  39 C :    0.027118
  40 C :   -0.267430
  41 C :   -0.240063
  42 C :   -0.148557
  43 H :    0.162999
  44 C :   -0.142214
  45 H :    0.144815
  46 C :   -0.148642
  47 H :    0.174637
  48 H :    0.145650
  49 H :    0.150678
Sum of atomic charges:   -0.0000000

LOEWDIN ATOMIC CHARGES
----------------------
   0 C :   -0.329465
   1 O :    0.224328
   2 H :    0.118121
   3 H :    0.112068
   4 H :    0.112055
   5 C :   -0.261526
   6 C :   -0.124715
   7 C :   -0.148792
   8 C :   -0.117458
   9 H :    0.153399
  10 C :   -0.102991
  11 H :    0.153732
  12 C :   -0.131337
  13 H :    0.153263
  14 H :    0.157225
  15 C :   -0.195775
  16 C :   -0.110434
  17 C :   -0.108653
  18 H :    0.165520
  19 C :   -0.173191
  20 H :    0.152613
  21 C :   -0.170856
  22 H :    0.151794
  23 N :    0.217755
  24 C :   -0.276023
  25 H :    0.115342
  26 H :    0.130280
  27 H :    0.130803
  28 C :   -0.117602
  29 C :   -0.105995
  30 C :   -0.143732
  31 H :    0.156581
  32 C :   -0.103253
  33 C :   -0.144641
  34 H :    0.155558
  35 C :   -0.147079
  36 H :    0.150637
  37 H :    0.150152
  38 H :    0.151041
  39 C :   -0.116538
  40 C :   -0.105624
  41 C :   -0.104187
  42 C :   -0.143983
  43 H :    0.156725
  44 C :   -0.147123
  45 H :    0.150545
  46 C :   -0.144792
  47 H :    0.155274
  48 H :    0.151005
  49 H :    0.149950

  Mayer bond orders larger than 0.100000
B(  0-C ,  1-O ) :   0.9269 B(  0-C ,  2-H ) :   0.9698 B(  0-C ,  3-H ) :   0.9671
B(  0-C ,  4-H ) :   0.9672 B(  1-O ,  5-C ) :   1.1117 B(  5-C ,  6-C ) :   1.3133
B(  5-C ,  7-C ) :   1.3010 B(  6-C , 10-C ) :   1.4714 B(  6-C , 11-H ) :   1.0017
B(  7-C ,  8-C ) :   1.4107 B(  7-C ,  9-H ) :   0.9692 B(  8-C , 12-C ) :   1.4261
B(  8-C , 13-H ) :   0.9637 B( 10-C , 12-C ) :   1.3184 B( 10-C , 14-H ) :   0.9751
B( 12-C , 15-C ) :   0.8644 B( 15-C , 16-C ) :   0.9649 B( 15-C , 17-C ) :   0.9525
B( 15-C , 18-H ) :   0.9723 B( 16-C , 19-C ) :   1.8071 B( 16-C , 20-H ) :   0.9690
B( 17-C , 21-C ) :   1.8194 B( 17-C , 22-H ) :   0.9642 B( 19-C , 23-N ) :   1.1056
B( 19-C , 28-C ) :   0.8905 B( 21-C , 23-N ) :   1.1109 B( 21-C , 39-C ) :   0.8939
B( 23-N , 24-C ) :   0.8660 B( 24-C , 25-H ) :   0.9717 B( 24-C , 26-H ) :   0.9601
B( 24-C , 27-H ) :   0.9595 B( 28-C , 29-C ) :   1.4030 B( 28-C , 32-C ) :   1.3314
B( 29-C , 30-C ) :   1.4308 B( 29-C , 31-H ) :   0.9714 B( 30-C , 35-C ) :   1.3941
B( 30-C , 36-H ) :   0.9876 B( 32-C , 33-C ) :   1.4542 B( 32-C , 34-H ) :   0.9550
B( 33-C , 35-C ) :   1.3702 B( 33-C , 38-H ) :   0.9878 B( 35-C , 37-H ) :   0.9817
B( 39-C , 40-C ) :   1.3999 B( 39-C , 41-C ) :   1.3305 B( 40-C , 42-C ) :   1.4331
B( 40-C , 43-H ) :   0.9706 B( 41-C , 46-C ) :   1.4515 B( 41-C , 47-H ) :   0.9558
B( 42-C , 44-C ) :   1.3954 B( 42-C , 45-H ) :   0.9855 B( 44-C , 46-C ) :   1.3710
B( 44-C , 49-H ) :   0.9821 B( 46-C , 48-H ) :   0.9873

Dispersion correction           -0.024822768
FINAL SINGLE POINT ENERGY     -1096.536883466181

DIPOLE MOMENT
-------------
                                X             Y             Z
Electronic contribution:      0.49348      -2.14845      -2.74703
Nuclear contribution   :     -0.59203       2.18065       2.86980
                        -----------------------------------------
Total Dipole Moment    :     -0.09855       0.03220       0.12277
                        -----------------------------------------
Magnitude (a.u.)       :      0.16069
Magnitude (Debye)      :      0.40844

Rotational constants in cm-1:     0.006744     0.004409     0.002898
Rotational constants in MHz :   202.179143   132.169087    86.866298

                             ****ORCA TERMINATED NORMALLY****
TOTAL RUN TIME: 2 days 8 hours 32 minutes 48 seconds 939 msec
