                         Program Version 4.2.1 -  RELEASE  -
|  1> # avogadro generated ORCA input file
|  2> # Basic Mode
|  3> #
|  4> ! wB97X-D3 OPT def2-TZVP def2/J CPCM
|  5> %cpcm
|  6>   epsilon 3
|  7> end
|  8> %pal
|  9>  nprocs 4
| 10> end
| 11>
| 12> * xyz 0 1
| 13>    N      -18.19932        1.39042       -0.00850
| 14>    C      -17.16652        0.85993       -0.00954
| 15>    N      -16.80606       -2.37390       -0.00938
| 16>    C      -16.33947       -1.31082       -0.01006
| 17>    C      -15.92746        0.08495       -0.01067
| 18>    C      -14.61455        0.61416       -0.01176
| 19>    C      -14.39560        2.01748       -0.01202
| 20>    C      -13.41030       -0.17559       -0.01259
| 21>    C      -13.09129        2.60050       -0.01266
| 22>    C      -11.89174        1.82444       -0.01308
| 23>    C      -10.53079        2.39882       -0.01333
| 24>    C       -9.59669        0.17432       -0.01409
| 25>    C       -9.33550        1.56891       -0.01364
| 26>    C       -7.98684        2.01553       -0.01285
| 27>    C       -7.44661        3.36602       -0.01327
| 28>    C       -6.80982        1.14353       -0.01532
| 29>    N       -6.85739        4.36699       -0.01280
| 30>    N       -5.83087        0.51879       -0.01298
| 31>    F      -10.37811        3.75040       -0.01306
| 32>    F      -13.02754        3.95437       -0.01277
| 33>    F      -15.45797        2.86612       -0.01157
| 34>    F      -13.53102       -1.52909       -0.01264
| 35>    F       -8.57645       -0.72178       -0.01465
| 36>    C      -12.07335        0.41901       -0.01321
| 37>    C      -10.90007       -0.37185       -0.01389
| 38>    F      -10.99259       -1.72262       -0.01429
| 39> *
| 40>
| 41>
| 42>                          ****END OF INPUT****
 Total Charge           Charge          ....    0
 Multiplicity           Mult            ....    1
 Number of Electrons    NEL             ....  178
Dispersion correction           -0.012113870
FINAL SINGLE POINT ENERGY     -1427.671853152078
Dispersion correction            ... done
Dispersion correction           -0.012269100
FINAL SINGLE POINT ENERGY     -1427.719391127502
Dispersion correction            ... done
Dispersion correction           -0.012372055
FINAL SINGLE POINT ENERGY     -1427.731601239478
Dispersion correction            ... done
FINAL SINGLE POINT ENERGY     -1427.732617374126
FINAL SINGLE POINT ENERGY     -1427.732777746067
FINAL SINGLE POINT ENERGY     -1427.732803977161
Dispersion correction            ... done
Dispersion correction           -0.012347591
FINAL SINGLE POINT ENERGY     -1427.732810715157
Dispersion correction            ... done
Dispersion correction           -0.012349171
FINAL SINGLE POINT ENERGY     -1427.732813466055
Dispersion correction            ... done
                    ***********************HURRAY********************

CARTESIAN COORDINATES (ANGSTROEM)
---------------------------------
  N    -17.988186    1.523926   -0.009788
  C    -16.984019    0.967472   -0.010467
  N    -16.426431   -2.324510   -0.008813
  C    -16.091013   -1.226426   -0.009862
  C    -15.792068    0.173507   -0.011024
  C    -14.532371    0.698092   -0.011894
  C    -14.274541    2.117767   -0.011766
  C    -13.339352   -0.134752   -0.012494
  C    -13.034666    2.626033   -0.011767
  C    -11.858502    1.784261   -0.012295
  C    -10.597091    2.267919   -0.012295
  C     -9.661878    0.015329   -0.014346
  C     -9.404090    1.435080   -0.013443
  C     -8.144319    1.959496   -0.013689
  C     -7.845286    3.359420   -0.014687
  C     -6.952480    1.165391   -0.013326
  N     -7.509608    4.457427   -0.015148
  N     -5.948725    0.608210   -0.010512
  F    -10.383644    3.568239   -0.012814
  F    -12.888601    3.936395   -0.011304
  F    -15.306052    2.947937   -0.010968
  F    -13.553045   -1.435051   -0.012837
  F     -8.630324   -0.814785   -0.016503
  C    -12.077896    0.348875   -0.012827
  C    -10.901746   -0.492938   -0.014080
  F    -11.047986   -1.803275   -0.015670

 Multiplicity           Mult            ....    1
 Number of Electrons    NEL             ....  178
 Basis Dimension        Dim             ....  806

ORBITAL ENERGIES
----------------

  NO   OCC          E(Eh)            E(eV)
   0   2.0000     -24.863414      -676.5679
   1   2.0000     -24.863404      -676.5676
   2   2.0000     -24.855813      -676.3611
   3   2.0000     -24.855810      -676.3610
   4   2.0000     -24.852972      -676.2838
   5   2.0000     -24.852971      -676.2837
   6   2.0000     -14.456018      -393.3682
   7   2.0000     -14.455999      -393.3677
   8   2.0000     -14.455724      -393.3602
   9   2.0000     -14.455718      -393.3601
  10   2.0000     -10.451766      -284.4070
  11   2.0000     -10.451759      -284.4068
  12   2.0000     -10.437167      -284.0098
  13   2.0000     -10.437162      -284.0096
  14   2.0000     -10.427619      -283.7499
  15   2.0000     -10.427614      -283.7498
  16   2.0000     -10.405961      -283.1606
  17   2.0000     -10.405956      -283.1605
  18   2.0000     -10.401146      -283.0296
  19   2.0000     -10.401139      -283.0294
  20   2.0000     -10.378777      -282.4209
  21   2.0000     -10.378443      -282.4118
  22   2.0000     -10.357366      -281.8383
  23   2.0000     -10.357361      -281.8381
  24   2.0000     -10.356738      -281.8212
  25   2.0000     -10.356734      -281.8211
  26   2.0000      -1.425331       -38.7852
  27   2.0000      -1.424869       -38.7727
  28   2.0000      -1.416858       -38.5547
  29   2.0000      -1.416388       -38.5419
  30   2.0000      -1.400612       -38.1126
  31   2.0000      -1.400482       -38.1091
  32   2.0000      -1.089830       -29.6558
  33   2.0000      -1.079620       -29.3779
  34   2.0000      -1.072736       -29.1906
  35   2.0000      -1.057761       -28.7831
  36   2.0000      -1.057751       -28.7829
  37   2.0000      -1.042093       -28.3568
  38   2.0000      -1.006623       -27.3916
  39   2.0000      -0.975347       -26.5405
  40   2.0000      -0.953232       -25.9388
  41   2.0000      -0.930552       -25.3216
  42   2.0000      -0.890521       -24.2323
  43   2.0000      -0.841859       -22.9081
  44   2.0000      -0.827254       -22.5107
  45   2.0000      -0.803863       -21.8742
  46   2.0000      -0.765432       -20.8285
  47   2.0000      -0.756927       -20.5970
  48   2.0000      -0.756178       -20.5766
  49   2.0000      -0.734028       -19.9739
  50   2.0000      -0.720229       -19.5984
  51   2.0000      -0.713915       -19.4266
  52   2.0000      -0.691821       -18.8254
  53   2.0000      -0.685978       -18.6664
  54   2.0000      -0.685242       -18.6464
  55   2.0000      -0.673478       -18.3263
  56   2.0000      -0.659853       -17.9555
  57   2.0000      -0.654783       -17.8175
  58   2.0000      -0.651799       -17.7364
  59   2.0000      -0.649121       -17.6635
  60   2.0000      -0.648333       -17.6420
  61   2.0000      -0.637073       -17.3356
  62   2.0000      -0.614108       -16.7107
  63   2.0000      -0.613477       -16.6936
  64   2.0000      -0.610467       -16.6116
  65   2.0000      -0.589956       -16.0535
  66   2.0000      -0.575555       -15.6616
  67   2.0000      -0.568912       -15.4809
  68   2.0000      -0.556203       -15.1351
  69   2.0000      -0.554567       -15.0905
  70   2.0000      -0.547642       -14.9021
  71   2.0000      -0.529656       -14.4127
  72   2.0000      -0.527608       -14.3570
  73   2.0000      -0.524101       -14.2615
  74   2.0000      -0.509990       -13.8775
  75   2.0000      -0.509747       -13.8709
  76   2.0000      -0.503784       -13.7087
  77   2.0000      -0.503405       -13.6983
  78   2.0000      -0.478799       -13.0288
  79   2.0000      -0.478789       -13.0285
  80   2.0000      -0.478609       -13.0236
  81   2.0000      -0.474354       -12.9078
  82   2.0000      -0.473888       -12.8951
  83   2.0000      -0.462573       -12.5872
  84   2.0000      -0.462410       -12.5828
  85   2.0000      -0.430275       -11.7084
  86   2.0000      -0.429036       -11.6746
  87   2.0000      -0.363171        -9.8824
  88   2.0000      -0.328387        -8.9359
  89   0.0000      -0.130737        -3.5575
  90   0.0000      -0.027120        -0.7380
  91   0.0000       0.004687         0.1275
  92   0.0000       0.051947         1.4135
  93   0.0000       0.052165         1.4195

MULLIKEN ATOMIC CHARGES
-----------------------
   0 N :   -0.038120
   1 C :   -0.224652
   2 N :   -0.041131
   3 C :   -0.226924
   4 C :    0.413220
   5 C :   -0.176557
   6 C :    0.251723
   7 C :    0.327591
   8 C :    0.204884
   9 C :   -0.011540
  10 C :    0.327521
  11 C :    0.251707
  12 C :   -0.176490
  13 C :    0.413302
  14 C :   -0.226935
  15 C :   -0.224757
  16 N :   -0.041124
  17 N :   -0.038069
  18 F :   -0.156750
  19 F :   -0.155010
  20 F :   -0.166736
  21 F :   -0.156753
  22 F :   -0.166730
  23 C :   -0.011534
  24 C :    0.204882
  25 F :   -0.155017
Sum of atomic charges:   -0.0000000

LOEWDIN ATOMIC CHARGES
----------------------
   0 N :    0.079857
   1 C :   -0.135006
   2 N :    0.078411
   3 C :   -0.138302
   4 C :   -0.092291
   5 C :   -0.012064
   6 C :   -0.206254
   7 C :   -0.153152
   8 C :   -0.191570
   9 C :   -0.039428
  10 C :   -0.153182
  11 C :   -0.206225
  12 C :   -0.012025
  13 C :   -0.092296
  14 C :   -0.138298
  15 C :   -0.135016
  16 N :    0.078423
  17 N :    0.079867
  18 F :    0.285052
  19 F :    0.262371
  20 F :    0.262351
  21 F :    0.285038
  22 F :    0.262363
  23 C :   -0.039413
  24 C :   -0.191584
  25 F :    0.262372

  Mayer bond orders larger than 0.100000
B(  0-N ,  1-C ) :   2.9822 B(  1-C ,  4-C ) :   0.9577 B(  2-N ,  3-C ) :   2.9808
B(  3-C ,  4-C ) :   0.9549 B(  4-C ,  5-C ) :   1.5578 B(  5-C ,  6-C ) :   1.0834
B(  5-C ,  7-C ) :   1.0789 B(  6-C ,  8-C ) :   1.7139 B(  6-C , 20-F ) :   1.0168
B(  7-C , 21-F ) :   1.0812 B(  7-C , 23-C ) :   1.6093 B(  8-C ,  9-C ) :   1.0725
B(  8-C , 19-F ) :   1.1007 B(  9-C , 10-C ) :   1.6093 B(  9-C , 23-C ) :   1.0012
B( 10-C , 12-C ) :   1.0789 B( 10-C , 18-F ) :   1.0812 B( 11-C , 12-C ) :   1.0834
B( 11-C , 22-F ) :   1.0168 B( 11-C , 24-C ) :   1.7140 B( 12-C , 13-C ) :   1.5578
B( 13-C , 14-C ) :   0.9548 B( 13-C , 15-C ) :   0.9577 B( 14-C , 16-N ) :   2.9808
B( 15-C , 17-N ) :   2.9822 B( 23-C , 24-C ) :   1.0725 B( 24-C , 25-F ) :   1.1007

Dispersion correction           -0.012349682
FINAL SINGLE POINT ENERGY     -1427.732816362062

DIPOLE MOMENT
-------------
                                X             Y             Z
Electronic contribution:      0.00038       0.00105      -0.00733
Nuclear contribution   :      0.00023      -0.00040       0.00445
                        -----------------------------------------
Total Dipole Moment    :      0.00062       0.00065      -0.00287
                        -----------------------------------------
Magnitude (a.u.)       :      0.00301
Magnitude (Debye)      :      0.00764

Rotational constants in cm-1:     0.013832     0.004300     0.003280
Rotational constants in MHz :   414.662682   128.899615    98.332564

                             ****ORCA TERMINATED NORMALLY****
TOTAL RUN TIME: 0 days 7 hours 10 minutes 4 seconds 905 msec
