                         Program Version 4.2.1 -  RELEASE  -
|  1> # avogadro generated ORCA input file
|  2> # Basic Mode
|  3> #
|  4> ! wB97X-D3 OPT def2-TZVP def2/J CPCM
|  5> %cpcm
|  6>   epsilon 3
|  7> end
|  8> %pal
|  9>  nprocs 4
| 10> end
| 11>
| 12> * xyz 0 1
| 13>    B       -2.26821        2.04400       -0.00000
| 14>    F       -3.44127        2.88650        0.00000
| 15>    F       -0.95206        2.63866       -0.00000
| 16>    F       -2.41130        0.60686       -0.00000
| 17> *
| 18>
| 19>
| 20>                          ****END OF INPUT****
 Total Charge           Charge          ....    0
 Multiplicity           Mult            ....    1
 Number of Electrons    NEL             ....   32
Dispersion correction           -0.000228228
FINAL SINGLE POINT ENERGY      -324.590382416438
Dispersion correction            ... done
Dispersion correction           -0.000146008
FINAL SINGLE POINT ENERGY      -324.625474634152
Dispersion correction            ... done
Dispersion correction           -0.000107932
FINAL SINGLE POINT ENERGY      -324.628518351070
Dispersion correction            ... done
Dispersion correction           -0.000119831
FINAL SINGLE POINT ENERGY      -324.629327416782
Dispersion correction            ... done
Dispersion correction           -0.000118674
FINAL SINGLE POINT ENERGY      -324.629336505192
Dispersion correction            ... done
                    ***********************HURRAY********************

CARTESIAN COORDINATES (ANGSTROEM)
---------------------------------
  B     -2.268363    2.044077   -0.000054
  F     -3.336568    2.811284    0.000018
  F     -1.069471    2.585500    0.000018
  F     -2.398438    0.735159    0.000018

 Multiplicity           Mult            ....    1
 Number of Electrons    NEL             ....   32
 Basis Dimension        Dim             ....  124

ORBITAL ENERGIES
----------------

  NO   OCC          E(Eh)            E(eV)
   0   2.0000     -24.818787      -675.3535
   1   2.0000     -24.818770      -675.3531
   2   2.0000     -24.818711      -675.3515
   3   2.0000      -7.012750      -190.8266
   4   2.0000      -1.389046       -37.7979
   5   2.0000      -1.350063       -36.7371
   6   2.0000      -1.349927       -36.7334
   7   2.0000      -0.717154       -19.5148
   8   2.0000      -0.678128       -18.4528
   9   2.0000      -0.677939       -18.4477
  10   2.0000      -0.637273       -17.3411
  11   2.0000      -0.571104       -15.5405
  12   2.0000      -0.571083       -15.5400
  13   2.0000      -0.561664       -15.2837
  14   2.0000      -0.561566       -15.2810
  15   2.0000      -0.530385       -14.4325
  16   0.0000       0.095323         2.5939
  17   0.0000       0.116905         3.1811
  18   0.0000       0.183161         4.9841
  19   0.0000       0.183254         4.9866
  20   0.0000       0.205085         5.5807

MULLIKEN ATOMIC CHARGES
-----------------------
   0 B :    0.700504
   1 F :   -0.233562
   2 F :   -0.233490
   3 F :   -0.233451
Sum of atomic charges:    0.0000000

LOEWDIN ATOMIC CHARGES
----------------------
   0 B :   -1.039075
   1 F :    0.346587
   2 F :    0.346275
   3 F :    0.346212

  Mayer bond orders larger than 0.100000
B(  0-B ,  1-F ) :   1.2069 B(  0-B ,  2-F ) :   1.2067 B(  0-B ,  3-F ) :   1.2069

Dispersion correction           -0.000118616
FINAL SINGLE POINT ENERGY      -324.629336530748

DIPOLE MOMENT
-------------
                                X             Y             Z
Electronic contribution:     -0.00029       0.00089      -0.00036
Nuclear contribution   :      0.00004      -0.00002       0.00001
                        -----------------------------------------
Total Dipole Moment    :     -0.00025       0.00087      -0.00034
                        -----------------------------------------
Magnitude (a.u.)       :      0.00097
Magnitude (Debye)      :      0.00246

Rotational constants in cm-1:     0.341950     0.341889     0.170960
Rotational constants in MHz : 10251.397752 10249.578126  5125.243934

                             ****ORCA TERMINATED NORMALLY****
TOTAL RUN TIME: 0 days 0 hours 2 minutes 1 seconds 979 msec
