                         Program Version 4.2.1 -  RELEASE  -
|  1> # avogadro generated ORCA input file
|  2> # Basic Mode
|  3> #
|  4> ! wB97X-D3 OPT def2-TZVP def2/J CPCM
|  5> %cpcm
|  6>   epsilon 3
|  7> end
|  8> %pal
|  9>  nprocs 4
| 10> end
| 11>
| 12> * xyz 0 1
| 13>    C      -16.10159       -1.28317       -0.00221
| 14>    C      -16.21081       -2.69180       -0.00810
| 15>    C      -14.83392       -0.68728        0.00707
| 16>    H      -16.99506       -0.66566        0.00085
| 17>    C      -15.04923       -3.50110       -0.04520
| 18>    H      -17.19713       -3.14221        0.00157
| 19>    C      -13.70773       -1.51773       -0.01704
| 20>    H      -14.73547        0.39631        0.02511
| 21>    C      -13.78686       -2.87883       -0.08069
| 22>    H      -15.14199       -4.57682       -0.05479
| 23>    N      -12.37621       -1.14161        0.01350
| 24>    N      -12.47557       -3.43642       -0.17995
| 25>    C      -11.50560       -2.31561       -0.00441
| 26>    H      -12.15241       -0.14513        0.00523
| 27>    H      -12.30624       -4.45646       -0.17243
| 28>    C       -9.93695       -2.05145       -0.11022
| 29>    H      -11.28614       -2.67451        1.00901
| 30>    C       -8.97650       -3.10610       -0.10343
| 31>    C       -9.36090       -0.70947       -0.05880
| 32>    C       -7.58432       -2.85552       -0.06579
| 33>    H       -9.28489       -4.13912       -0.09282
| 34>    C       -7.08874       -1.55614       -0.03602
| 35>    H       -6.86800       -3.66746       -0.04323
| 36>    C       -7.97300       -0.49916       -0.02959
| 37>    H       -6.02019       -1.35835       -0.00517
| 38>    H       -7.57304        0.51251        0.01669
| 39>    O      -10.10903        0.40556       -0.00673
| 40>    H       -9.74563        1.30377        0.04679
| 41> *
| 42>
| 43>
| 44>                          ****END OF INPUT****
 Total Charge           Charge          ....    0
 Multiplicity           Mult            ....    1
 Number of Electrons    NEL             ....  112
Dispersion correction           -0.010224449
FINAL SINGLE POINT ENERGY      -687.293108337914
Dispersion correction            ... done
Dispersion correction           -0.010367766
FINAL SINGLE POINT ENERGY      -687.325136893127
Dispersion correction            ... done
Dispersion correction           -0.010469275
FINAL SINGLE POINT ENERGY      -687.346920997514
Dispersion correction            ... done
FINAL SINGLE POINT ENERGY      -687.361689979211
FINAL SINGLE POINT ENERGY      -687.372276112229
FINAL SINGLE POINT ENERGY      -687.379436963487
FINAL SINGLE POINT ENERGY      -687.383311280801
FINAL SINGLE POINT ENERGY      -687.384989197898
FINAL SINGLE POINT ENERGY      -687.386490157718
FINAL SINGLE POINT ENERGY      -687.388097035964
FINAL SINGLE POINT ENERGY      -687.395325887249
FINAL SINGLE POINT ENERGY      -687.395856840757
FINAL SINGLE POINT ENERGY      -687.396757403572
FINAL SINGLE POINT ENERGY      -687.397593164148
FINAL SINGLE POINT ENERGY      -687.397748565320
FINAL SINGLE POINT ENERGY      -687.397906887428
FINAL SINGLE POINT ENERGY      -687.397944482899
Dispersion correction            ... done
Dispersion correction           -0.010819288
FINAL SINGLE POINT ENERGY      -687.397968323622
Dispersion correction            ... done
Dispersion correction           -0.010820960
FINAL SINGLE POINT ENERGY      -687.397963076426
Dispersion correction            ... done
                    ***********************HURRAY********************

CARTESIAN COORDINATES (ANGSTROEM)
---------------------------------
  C    -15.961190   -1.669542   -0.532302
  C    -15.890133   -2.999221   -0.157654
  C    -14.814662   -0.867116   -0.555395
  H    -16.915761   -1.238523   -0.809514
  C    -14.667864   -3.576791    0.206379
  H    -16.788531   -3.604441   -0.142531
  C    -13.615634   -1.437611   -0.189720
  H    -14.869521    0.174323   -0.849441
  C    -13.544387   -2.782066    0.186957
  H    -14.610780   -4.617983    0.501404
  N    -12.322435   -0.905615   -0.166345
  N    -12.203665   -3.096510    0.450171
  C    -11.502592   -1.826696    0.636227
  H    -12.233425    0.061323    0.105110
  H    -12.045032   -3.770555    1.182890
  C    -10.060330   -1.849795    0.188750
  H    -11.526227   -1.525330    1.696799
  C     -9.497797   -2.919320   -0.488351
  C     -9.259043   -0.741332    0.465444
  C     -8.165461   -2.903277   -0.879782
  H    -10.123790   -3.774340   -0.711847
  C     -7.382534   -1.797454   -0.591517
  H     -7.743691   -3.750182   -1.406438
  C     -7.927070   -0.712821    0.080488
  H     -6.341560   -1.771310   -0.890791
  H     -7.320731    0.158410    0.305600
  O     -9.846510    0.303058    1.115404
  H     -9.202793    1.001757    1.259204

 Multiplicity           Mult            ....    1
 Number of Electrons    NEL             ....  112
 Basis Dimension        Dim             ....  568

ORBITAL ENERGIES
----------------

  NO   OCC          E(Eh)            E(eV)
   0   2.0000     -19.270921      -524.3884
   1   2.0000     -14.428058      -392.6074
   2   2.0000     -14.425295      -392.5322
   3   2.0000     -10.347552      -281.5712
   4   2.0000     -10.344383      -281.4850
   5   2.0000     -10.305172      -280.4180
   6   2.0000     -10.304562      -280.4014
   7   2.0000     -10.282768      -279.8083
   8   2.0000     -10.281969      -279.7866
   9   2.0000     -10.279009      -279.7061
  10   2.0000     -10.278650      -279.6963
  11   2.0000     -10.271761      -279.5088
  12   2.0000     -10.269083      -279.4360
  13   2.0000     -10.268615      -279.4232
  14   2.0000     -10.265543      -279.3396
  15   2.0000     -10.264916      -279.3226
  16   2.0000      -1.188701       -32.3462
  17   2.0000      -1.109176       -30.1822
  18   2.0000      -0.992697       -27.0127
  19   2.0000      -0.982084       -26.7239
  20   2.0000      -0.960107       -26.1258
  21   2.0000      -0.892169       -24.2772
  22   2.0000      -0.860471       -23.4146
  23   2.0000      -0.850795       -23.1513
  24   2.0000      -0.838977       -22.8297
  25   2.0000      -0.764939       -20.8151
  26   2.0000      -0.741543       -20.1784
  27   2.0000      -0.734750       -19.9936
  28   2.0000      -0.698762       -19.0143
  29   2.0000      -0.694994       -18.9118
  30   2.0000      -0.653625       -17.7860
  31   2.0000      -0.639669       -17.4063
  32   2.0000      -0.609125       -16.5751
  33   2.0000      -0.596010       -16.2182
  34   2.0000      -0.594735       -16.1836
  35   2.0000      -0.566780       -15.4229
  36   2.0000      -0.554766       -15.0959
  37   2.0000      -0.537950       -14.6384
  38   2.0000      -0.532329       -14.4854
  39   2.0000      -0.528984       -14.3944
  40   2.0000      -0.525859       -14.3093
  41   2.0000      -0.520364       -14.1598
  42   2.0000      -0.502691       -13.6789
  43   2.0000      -0.500026       -13.6064
  44   2.0000      -0.484392       -13.1810
  45   2.0000      -0.457376       -12.4458
  46   2.0000      -0.449974       -12.2444
  47   2.0000      -0.447102       -12.1663
  48   2.0000      -0.437770       -11.9123
  49   2.0000      -0.433954       -11.8085
  50   2.0000      -0.411091       -11.1864
  51   2.0000      -0.388848       -10.5811
  52   2.0000      -0.344824        -9.3831
  53   2.0000      -0.319010        -8.6807
  54   2.0000      -0.315026        -8.5723
  55   2.0000      -0.267423        -7.2769
  56   0.0000       0.058894         1.6026
  57   0.0000       0.072970         1.9856
  58   0.0000       0.075107         2.0438
  59   0.0000       0.088275         2.4021
  60   0.0000       0.118573         3.2265

MULLIKEN ATOMIC CHARGES
-----------------------
   0 C :   -0.161832
   1 C :   -0.141489
   2 C :   -0.246095
   3 H :    0.137282
   4 C :   -0.276607
   5 H :    0.143092
   6 C :    0.094562
   7 H :    0.140153
   8 C :    0.151105
   9 H :    0.140942
  10 N :   -0.343438
  11 N :   -0.366604
  12 C :    0.132141
  13 H :    0.258391
  14 H :    0.259220
  15 C :    0.017759
  16 H :    0.118195
  17 C :   -0.176318
  18 C :    0.197330
  19 C :   -0.183765
  20 H :    0.148020
  21 C :   -0.141757
  22 H :    0.147846
  23 C :   -0.238928
  24 H :    0.150669
  25 H :    0.143356
  26 O :   -0.462231
  27 H :    0.359001
Sum of atomic charges:   -0.0000000

LOEWDIN ATOMIC CHARGES
----------------------
   0 C :   -0.173351
   1 C :   -0.174421
   2 C :   -0.140641
   3 H :    0.146169
   4 C :   -0.141465
   5 H :    0.146696
   6 C :   -0.197661
   7 H :    0.149564
   8 C :   -0.196196
   9 H :    0.149449
  10 N :    0.102589
  11 N :    0.107840
  12 C :   -0.248322
  13 H :    0.185297
  14 H :    0.189674
  15 C :   -0.122660
  16 H :    0.142438
  17 C :   -0.109811
  18 C :   -0.246147
  19 C :   -0.164262
  20 H :    0.153860
  21 C :   -0.145245
  22 H :    0.149207
  23 C :   -0.145375
  24 H :    0.151769
  25 H :    0.152355
  26 O :    0.077903
  27 H :    0.200748

  Mayer bond orders larger than 0.100000
B(  0-C ,  1-C ) :   1.4565 B(  0-C ,  2-C ) :   1.3615 B(  0-C ,  3-H ) :   0.9881
B(  1-C ,  4-C ) :   1.3633 B(  1-C ,  5-H ) :   0.9864 B(  2-C ,  6-C ) :   1.3974
B(  2-C ,  7-H ) :   0.9899 B(  4-C ,  8-C ) :   1.3936 B(  4-C ,  9-H ) :   0.9852
B(  6-C ,  8-C ) :   1.2922 B(  6-C , 10-N ) :   1.1324 B(  8-C , 11-N ) :   1.0708
B( 10-N , 12-C ) :   0.9956 B( 10-N , 13-H ) :   0.9024 B( 11-N , 12-C ) :   1.0166
B( 11-N , 14-H ) :   0.9093 B( 12-C , 15-C ) :   0.8911 B( 12-C , 16-H ) :   0.9959
B( 15-C , 17-C ) :   1.3904 B( 15-C , 18-C ) :   1.3785 B( 17-C , 19-C ) :   1.4089
B( 17-C , 20-H ) :   0.9580 B( 18-C , 23-C ) :   1.4160 B( 18-C , 26-O ) :   1.1243
B( 19-C , 21-C ) :   1.4093 B( 19-C , 22-H ) :   0.9856 B( 21-C , 23-C ) :   1.3906
B( 21-C , 24-H ) :   0.9760 B( 23-C , 25-H ) :   0.9685 B( 26-O , 27-H ) :   0.8586

Dispersion correction           -0.010820906
FINAL SINGLE POINT ENERGY      -687.397965037345

DIPOLE MOMENT
-------------
                                X             Y             Z
Electronic contribution:      1.21735       1.33170       0.85852
Nuclear contribution   :      0.00365      -0.68208       0.11181
                        -----------------------------------------
Total Dipole Moment    :      1.22101       0.64962       0.97033
                        -----------------------------------------
Magnitude (a.u.)       :      1.68950
Magnitude (Debye)      :      4.29437

Rotational constants in cm-1:     0.051247     0.009723     0.008666
Rotational constants in MHz :  1536.359865   291.497376   259.814574

                             ****ORCA TERMINATED NORMALLY****
TOTAL RUN TIME: 0 days 9 hours 26 minutes 14 seconds 11 msec
