                         Program Version 4.2.1 -  RELEASE  -
|  1> # avogadro generated ORCA input file
|  2> # Basic Mode
|  3> #
|  4> ! wB97X-D3 OPT def2-TZVP def2/J CPCM
|  5> %cpcm
|  6>   epsilon 3
|  7> end
|  8> %pal
|  9>  nprocs 4
| 10> end
| 11>
| 12> * xyz 0 1
| 13>    O        0.88130       -0.01230       -0.07190
| 14>    O        2.16330       -0.01230       -0.07190
| 15> *
| 16>
| 17>
| 18>                          ****END OF INPUT****
 Total Charge           Charge          ....    0
 Multiplicity           Mult            ....    1
 Number of Electrons    NEL             ....   16
Dispersion correction           -0.000000254
FINAL SINGLE POINT ENERGY      -150.275316249941
Dispersion correction            ... done
Dispersion correction           -0.000000153
FINAL SINGLE POINT ENERGY      -150.285725774014
Dispersion correction            ... done
Dispersion correction           -0.000000138
FINAL SINGLE POINT ENERGY      -150.285891061358
Dispersion correction            ... done
Dispersion correction           -0.000000142
FINAL SINGLE POINT ENERGY      -150.285918243683
Dispersion correction            ... done
                    ***********************HURRAY********************

CARTESIAN COORDINATES (ANGSTROEM)
---------------------------------
  O      0.926352   -0.012300   -0.071900
  O      2.118248   -0.012300   -0.071900

 Multiplicity           Mult            ....    1
 Number of Electrons    NEL             ....   16
 Basis Dimension        Dim             ....   62

ORBITAL ENERGIES
----------------

  NO   OCC          E(Eh)            E(eV)
   0   2.0000     -19.387627      -527.5641
   1   2.0000     -19.387373      -527.5572
   2   2.0000      -1.413661       -38.4677
   3   2.0000      -0.907533       -24.6952
   4   2.0000      -0.642576       -17.4854
   5   2.0000      -0.628254       -17.0957
   6   2.0000      -0.627000       -17.0615
   7   2.0000      -0.349839        -9.5196
   8   0.0000      -0.080758        -2.1975
   9   0.0000       0.292446         7.9579
  10   0.0000       0.424773        11.5587
  11   0.0000       0.478252        13.0139
  12   0.0000       0.485225        13.2036

MULLIKEN ATOMIC CHARGES
-----------------------
   0 O :   -0.000000
   1 O :    0.000000
Sum of atomic charges:    0.0000000

LOEWDIN ATOMIC CHARGES
----------------------
   0 O :   -0.000000
   1 O :    0.000000

  Mayer bond orders larger than 0.100000
B(  0-O ,  1-O ) :   1.8078

Dispersion correction           -0.000000142
FINAL SINGLE POINT ENERGY      -150.285918173921

DIPOLE MOMENT
-------------
                                X             Y             Z
Electronic contribution:      0.00000       0.00000       0.00000
Nuclear contribution   :     -0.00000       0.00000       0.00000
                        -----------------------------------------
Total Dipole Moment    :      0.00000       0.00000       0.00000
                        -----------------------------------------
Magnitude (a.u.)       :      0.00000
Magnitude (Debye)      :      0.00000

Rotational constants in cm-1:     0.000000     1.483396     1.483396
Rotational constants in MHz :     0.000000 44471.092407 44471.092407

                             ****ORCA TERMINATED NORMALLY****
TOTAL RUN TIME: 0 days 0 hours 0 minutes 44 seconds 722 msec
