                         Program Version 4.2.1 -  RELEASE  -
|  1> # avogadro generated ORCA input file
|  2> # Basic Mode
|  3> #
|  4> ! wB97X-D3 OPT def2-TZVP def2/J CPCM
|  5> %cpcm
|  6>   epsilon 3
|  7> end
|  8> %pal
|  9>  nprocs 4
| 10> end
| 11>
| 12> * xyz 0 1
| 13>    C        3.71140        3.24849        0.90570
| 14>    C        3.98181        1.89175        0.71824
| 15>    C        2.42144        3.73773        0.69364
| 16>    H        4.50070        3.91993        1.21818
| 17>    C        2.96477        1.02055        0.31514
| 18>    H        4.98153        1.51302        0.88797
| 19>    C        1.40072        2.87152        0.29127
| 20>    H        2.21127        4.78913        0.84173
| 21>    C        1.65747        1.50356        0.09127
| 22>    H        3.21276       -0.02349        0.19114
| 23>    H        0.40553        3.26893        0.13234
| 24>    C        0.50129        0.61990       -0.34037
| 25>    N        0.88262       -0.77647       -0.61349
| 26>    H        0.03629        1.03952       -1.25955
| 27>    H       -0.26214        0.66981        0.46769
| 28>    C        1.69554       -1.06467       -1.66868
| 29>    C        0.40350       -1.78339        0.16823
| 30>    C        2.06171       -2.38065       -1.95715
| 31>    H        2.07077       -0.26720       -2.30034
| 32>    C        0.74446       -3.11406       -0.08412
| 33>    H       -0.25046       -1.56634        1.00495
| 34>    C        1.59671       -3.46789       -1.16676
| 35>    H        2.70835       -2.49092       -2.80874
| 36>    H        0.31367       -3.82525        0.59720
| 37>    C        1.94823       -4.78149       -1.43418
| 38>    C        2.79881       -5.13515       -2.51791
| 39>    C        1.48175       -5.86927       -0.64503
| 40>    C        3.14076       -6.46539       -2.76817
| 41>    H        3.22586       -4.42483       -3.20245
| 42>    C        1.84920       -7.18588       -0.93162
| 43>    H        0.83112       -5.75892        0.20354
| 44>    N        2.67431       -7.47193       -1.97656
| 45>    H        3.78933       -6.68937       -3.60778
| 46>    H        1.46565       -7.97936       -0.30062
| 47>    C        3.04021       -8.86790       -2.27191
| 48>    C        4.51477       -9.17401       -2.08249
| 49>    H        2.74682       -9.08962       -3.32165
| 50>    H        2.47810       -9.57035       -1.61701
| 51>    C        5.44352       -8.24242       -1.57063
| 52>    C        4.96839      -10.46070       -2.42291
| 53>    C        6.31367      -10.80734       -2.26746
| 54>    H        4.27679      -11.19776       -2.81280
| 55>    C        6.78806       -8.59507       -1.41668
| 56>    H        5.14545       -7.24587       -1.27919
| 57>    C        7.22316       -9.87480       -1.76595
| 58>    H        6.65059      -11.80038       -2.53558
| 59>    H        7.49366       -7.87466       -1.02319
| 60>    H        8.26434      -10.14463       -1.64510
| 61> *
| 62>
| 63>
| 64>                          ****END OF INPUT****
 Total Charge           Charge          ....    0
 Multiplicity           Mult            ....    1
 Number of Electrons    NEL             ....  180
Dispersion correction           -0.020027854
FINAL SINGLE POINT ENERGY     -1037.300995159786
Dispersion correction            ... done
Dispersion correction           -0.020118532
FINAL SINGLE POINT ENERGY     -1037.320955309503
Dispersion correction            ... done
Dispersion correction           -0.020177947
FINAL SINGLE POINT ENERGY     -1037.326648423476
Dispersion correction            ... done
FINAL SINGLE POINT ENERGY     -1037.327899601413
FINAL SINGLE POINT ENERGY     -1037.328387712229
FINAL SINGLE POINT ENERGY     -1037.328519996691
FINAL SINGLE POINT ENERGY     -1037.328671912357
FINAL SINGLE POINT ENERGY     -1037.328746573351
FINAL SINGLE POINT ENERGY     -1037.328796016146
Dispersion correction            ... done
Dispersion correction           -0.020436541
FINAL SINGLE POINT ENERGY     -1037.328817947716
Dispersion correction            ... done
Dispersion correction           -0.020449959
FINAL SINGLE POINT ENERGY     -1037.328819736317
Dispersion correction            ... done
                    ***********************HURRAY********************

CARTESIAN COORDINATES (ANGSTROEM)
---------------------------------
  C      3.791635    3.036858    0.891400
  C      3.907306    1.655486    0.909342
  C      2.599668    3.618853    0.479773
  H      4.627190    3.658186    1.190255
  C      2.838638    0.858018    0.521766
  H      4.834989    1.192536    1.224717
  C      1.535894    2.821447    0.090258
  H      2.501048    4.697991    0.455995
  C      1.643331    1.433845    0.110951
  H      2.942636   -0.221108    0.533693
  H      0.609495    3.281439   -0.239336
  C      0.447117    0.594204   -0.292937
  N      0.748604   -0.777875   -0.624497
  H     -0.049030    1.065006   -1.145951
  H     -0.281024    0.585518    0.521884
  C      1.380636   -1.084646   -1.814485
  C      0.624227   -1.788261    0.307828
  C      1.808119   -2.319658   -2.111888
  H      1.504299   -0.254455   -2.499149
  C      1.026549   -3.045849    0.073227
  H      0.170341   -1.497755    1.247012
  C      1.640596   -3.445743   -1.192852
  H      2.276497   -2.459267   -3.075903
  H      0.872768   -3.767298    0.863760
  C      2.004911   -4.724525   -1.487883
  C      2.620725   -5.123697   -2.753021
  C      1.810246   -5.855955   -0.580357
  C      2.910769   -6.401473   -3.036218
  H      2.854256   -4.386998   -3.508949
  C      2.118757   -7.113367   -0.929489
  H      1.389365   -5.708532    0.404210
  N      2.642771   -7.438951   -2.164246
  H      3.366071   -6.692374   -3.974622
  H      1.965411   -7.949060   -0.257808
  C      3.070634   -8.783340   -2.463254
  C      4.512547   -9.102470   -2.114448
  H      2.907240   -8.970549   -3.527124
  H      2.414255   -9.472319   -1.925326
  C      5.299328   -8.246742   -1.355785
  C      5.054567  -10.309179   -2.550102
  C      6.354552  -10.658916   -2.225298
  H      4.449307  -10.981347   -3.150481
  C      6.604682   -8.595671   -1.029368
  H      4.896482   -7.299977   -1.014818
  C      7.135019   -9.801528   -1.459498
  H      6.761189  -11.601877   -2.571669
  H      7.207495   -7.919457   -0.434272
  H      8.152152  -10.072760   -1.202879

 Multiplicity           Mult            ....    1
 Number of Electrons    NEL             ....  180
 Basis Dimension        Dim             ....  938

ORBITAL ENERGIES
----------------

  NO   OCC          E(Eh)            E(eV)
   0   2.0000     -14.453800      -393.3079
   1   2.0000     -14.453442      -393.2982
   2   2.0000     -10.318091      -280.7695
   3   2.0000     -10.317929      -280.7651
   4   2.0000     -10.304784      -280.4074
   5   2.0000     -10.304603      -280.4025
   6   2.0000     -10.304246      -280.3928
   7   2.0000     -10.303734      -280.3789
   8   2.0000     -10.290046      -280.0064
   9   2.0000     -10.289466      -279.9906
  10   2.0000     -10.279780      -279.7270
  11   2.0000     -10.279574      -279.7214
  12   2.0000     -10.278878      -279.7025
  13   2.0000     -10.278506      -279.6924
  14   2.0000     -10.278335      -279.6877
  15   2.0000     -10.278223      -279.6847
  16   2.0000     -10.276954      -279.6501
  17   2.0000     -10.276713      -279.6436
  18   2.0000     -10.276640      -279.6416
  19   2.0000     -10.276477      -279.6371
  20   2.0000     -10.265091      -279.3273
  21   2.0000     -10.264371      -279.3077
  22   2.0000     -10.261805      -279.2379
  23   2.0000     -10.261411      -279.2272
  24   2.0000     -10.261138      -279.2198
  25   2.0000     -10.260790      -279.2103
  26   2.0000      -1.092467       -29.7275
  27   2.0000      -1.091887       -29.7118
  28   2.0000      -0.984140       -26.7798
  29   2.0000      -0.983606       -26.7653
  30   2.0000      -0.948196       -25.8017
  31   2.0000      -0.917753       -24.9733
  32   2.0000      -0.891117       -24.2485
  33   2.0000      -0.881420       -23.9847
  34   2.0000      -0.876376       -23.8474
  35   2.0000      -0.871918       -23.7261
  36   2.0000      -0.865698       -23.5568
  37   2.0000      -0.865231       -23.5441
  38   2.0000      -0.828453       -22.5434
  39   2.0000      -0.798580       -21.7305
  40   2.0000      -0.762932       -20.7604
  41   2.0000      -0.749246       -20.3880
  42   2.0000      -0.725350       -19.7378
  43   2.0000      -0.719228       -19.5712
  44   2.0000      -0.718464       -19.5504
  45   2.0000      -0.705001       -19.1841
  46   2.0000      -0.699662       -19.0388
  47   2.0000      -0.692554       -18.8453
  48   2.0000      -0.642616       -17.4865
  49   2.0000      -0.633040       -17.2259
  50   2.0000      -0.623557       -16.9678
  51   2.0000      -0.607939       -16.5429
  52   2.0000      -0.606885       -16.5142
  53   2.0000      -0.596305       -16.2263
  54   2.0000      -0.566993       -15.4287
  55   2.0000      -0.565597       -15.3907
  56   2.0000      -0.559512       -15.2251
  57   2.0000      -0.555425       -15.1139
  58   2.0000      -0.546130       -14.8610
  59   2.0000      -0.542264       -14.7557
  60   2.0000      -0.538244       -14.6464
  61   2.0000      -0.536042       -14.5864
  62   2.0000      -0.535547       -14.5730
  63   2.0000      -0.528814       -14.3898
  64   2.0000      -0.527682       -14.3590
  65   2.0000      -0.519345       -14.1321
  66   2.0000      -0.517532       -14.0828
  67   2.0000      -0.514930       -14.0120
  68   2.0000      -0.502903       -13.6847
  69   2.0000      -0.488189       -13.2843
  70   2.0000      -0.487431       -13.2637
  71   2.0000      -0.473959       -12.8971
  72   2.0000      -0.468295       -12.7430
  73   2.0000      -0.465405       -12.6643
  74   2.0000      -0.457138       -12.4394
  75   2.0000      -0.453407       -12.3378
  76   2.0000      -0.442720       -12.0470
  77   2.0000      -0.438994       -11.9456
  78   2.0000      -0.434564       -11.8251
  79   2.0000      -0.433122       -11.7858
  80   2.0000      -0.404602       -11.0098
  81   2.0000      -0.403765       -10.9870
  82   2.0000      -0.363271        -9.8851
  83   2.0000      -0.357434        -9.7263
  84   2.0000      -0.344258        -9.3677
  85   2.0000      -0.343883        -9.3575
  86   2.0000      -0.335608        -9.1324
  87   2.0000      -0.334934        -9.1140
  88   2.0000      -0.322246        -8.7688
  89   2.0000      -0.199005        -5.4152
  90   0.0000       0.051607         1.4043
  91   0.0000       0.056338         1.5330
  92   0.0000       0.059916         1.6304
  93   0.0000       0.063543         1.7291
  94   0.0000       0.064529         1.7559

MULLIKEN ATOMIC CHARGES
-----------------------
   0 C :   -0.164633
   1 C :   -0.154718
   2 C :   -0.124508
   3 H :    0.151750
   4 C :   -0.204872
   5 H :    0.145838
   6 C :   -0.274179
   7 H :    0.152726
   8 C :    0.133483
   9 H :    0.178919
  10 H :    0.140676
  11 C :   -0.190716
  12 N :   -0.034407
  13 H :    0.169766
  14 H :    0.156626
  15 C :   -0.126972
  16 C :   -0.123173
  17 C :   -0.267184
  18 H :    0.168712
  19 C :   -0.289064
  20 H :    0.158592
  21 C :    0.122312
  22 H :    0.136633
  23 H :    0.135631
  24 C :    0.125695
  25 C :   -0.280088
  26 C :   -0.278319
  27 C :   -0.115631
  28 H :    0.137923
  29 C :   -0.131233
  30 H :    0.134978
  31 N :   -0.045122
  32 H :    0.163004
  33 H :    0.167305
  34 C :   -0.159944
  35 C :    0.119368
  36 H :    0.165837
  37 H :    0.153050
  38 C :   -0.194770
  39 C :   -0.267045
  40 C :   -0.123170
  41 H :    0.140485
  42 C :   -0.159539
  43 H :    0.168011
  44 C :   -0.149444
  45 H :    0.141689
  46 H :    0.146877
  47 H :    0.142845
Sum of atomic charges:   -0.0000000

LOEWDIN ATOMIC CHARGES
----------------------
   0 C :   -0.151470
   1 C :   -0.142278
   2 C :   -0.145757
   3 H :    0.149851
   4 C :   -0.115960
   5 H :    0.150643
   6 C :   -0.120205
   7 H :    0.150550
   8 C :   -0.151263
   9 H :    0.157910
  10 H :    0.153093
  11 C :   -0.206004
  12 N :    0.205059
  13 H :    0.151991
  14 H :    0.154386
  15 C :   -0.190112
  16 C :   -0.196044
  17 C :   -0.146630
  18 H :    0.154166
  19 C :   -0.151591
  20 H :    0.151477
  21 C :   -0.164744
  22 H :    0.151457
  23 H :    0.150684
  24 C :   -0.164506
  25 C :   -0.148128
  26 C :   -0.150016
  27 C :   -0.190548
  28 H :    0.151471
  29 C :   -0.195614
  30 H :    0.150992
  31 N :    0.205287
  32 H :    0.152965
  33 H :    0.153175
  34 C :   -0.205920
  35 C :   -0.150074
  36 H :    0.153271
  37 H :    0.154251
  38 C :   -0.116443
  39 C :   -0.119527
  40 C :   -0.144949
  41 H :    0.153079
  42 C :   -0.142003
  43 H :    0.156639
  44 C :   -0.151071
  45 H :    0.149450
  46 H :    0.150331
  47 H :    0.148679

  Mayer bond orders larger than 0.100000
B(  0-C ,  1-C ) :   1.3998 B(  0-C ,  2-C ) :   1.3749 B(  0-C ,  3-H ) :   0.9800
B(  1-C ,  4-C ) :   1.4372 B(  1-C ,  5-H ) :   0.9829 B(  2-C ,  6-C ) :   1.4325
B(  2-C ,  7-H ) :   0.9852 B(  4-C ,  8-C ) :   1.3524 B(  4-C ,  9-H ) :   0.9593
B(  6-C ,  8-C ) :   1.3717 B(  6-C , 10-H ) :   0.9837 B(  8-C , 11-C ) :   0.9079
B( 11-C , 12-N ) :   0.9468 B( 11-C , 13-H ) :   0.9908 B( 11-C , 14-H ) :   0.9456
B( 12-N , 15-C ) :   1.0871 B( 12-N , 16-C ) :   1.1065 B( 15-C , 17-C ) :   1.8341
B( 15-C , 18-H ) :   0.9480 B( 16-C , 19-C ) :   1.8443 B( 16-C , 20-H ) :   0.9414
B( 17-C , 21-C ) :   1.0432 B( 17-C , 22-H ) :   0.9521 B( 19-C , 21-C ) :   1.0372
B( 19-C , 23-H ) :   0.9568 B( 21-C , 24-C ) :   1.5617 B( 24-C , 25-C ) :   1.0354
B( 24-C , 26-C ) :   1.0422 B( 25-C , 27-C ) :   1.8414 B( 25-C , 28-H ) :   0.9547
B( 26-C , 29-C ) :   1.8318 B( 26-C , 30-H ) :   0.9542 B( 27-C , 31-N ) :   1.0932
B( 27-C , 32-H ) :   0.9433 B( 29-C , 31-N ) :   1.1001 B( 29-C , 33-H ) :   0.9458
B( 31-N , 34-C ) :   0.9506 B( 34-C , 35-C ) :   0.9208 B( 34-C , 36-H ) :   0.9819
B( 34-C , 37-H ) :   0.9488 B( 35-C , 38-C ) :   1.3682 B( 35-C , 39-C ) :   1.3673
B( 38-C , 42-C ) :   1.4349 B( 38-C , 43-H ) :   0.9604 B( 39-C , 40-C ) :   1.4368
B( 39-C , 41-H ) :   0.9872 B( 40-C , 44-C ) :   1.3751 B( 40-C , 45-H ) :   0.9872
B( 42-C , 44-C ) :   1.4014 B( 42-C , 46-H ) :   0.9842 B( 44-C , 47-H ) :   0.9839

Dispersion correction           -0.020452706
FINAL SINGLE POINT ENERGY     -1037.328817755598

DIPOLE MOMENT
-------------
                                X             Y             Z
Electronic contribution:     -2.08734      -0.39134      -0.62843
Nuclear contribution   :      1.99893       0.36062       0.60273
                        -----------------------------------------
Total Dipole Moment    :     -0.08841      -0.03073      -0.02570
                        -----------------------------------------
Magnitude (a.u.)       :      0.09707
Magnitude (Debye)      :      0.24672

Rotational constants in cm-1:     0.017542     0.002150     0.002000
Rotational constants in MHz :   525.891254    64.450820    59.972589

                             ****ORCA TERMINATED NORMALLY****
TOTAL RUN TIME: 0 days 23 hours 19 minutes 51 seconds 29 msec
