                         Program Version 4.2.1 -  RELEASE  -
|  1> # avogadro generated ORCA input file
|  2> # Basic Mode
|  3> #
|  4> ! wB97X-D3 OPT def2-TZVP def2/J CPCM
|  5> %cpcm
|  6>   epsilon 3
|  7> end
|  8> %pal
|  9>  nprocs 4
| 10> end
| 11>
| 12>
| 13> * xyz 0 1
| 14>    C       -5.24222        2.69585        0.00513
| 15>    C       -3.73766        2.65359       -0.07384
| 16>    C       -3.06900        3.82049        0.08709
| 17>    C       -1.59662        3.83743        0.01187
| 18>    C       -0.84796        4.95592        0.18628
| 19>    C        0.60281        4.91394        0.15874
| 20>    N        1.75943        4.86144        0.13352
| 21>    C       -1.45897        6.23872        0.41553
| 22>    N       -1.95599        7.26627        0.59928
| 23>    C       -0.96233        2.53683       -0.17982
| 24>    C       -1.68012        1.40227       -0.29448
| 25>    C       -0.81077        0.21123       -0.02400
| 26>    C       -0.27715       -1.01732       -0.25352
| 27>    C       -0.10892       -2.19554       -1.08822
| 28>    C        1.07951       -2.22825       -1.82545
| 29>    C        1.65787       -3.43341       -2.20506
| 30>    C        1.06704       -4.67326       -1.85774
| 31>    N        1.64105       -5.93463       -2.29044
| 32>    C        2.78245       -6.01450       -3.19818
| 33>    C        0.99417       -7.21564       -2.03618
| 34>    C       -0.12564       -4.61468       -1.08201
| 35>    C       -0.69272       -3.39780       -0.69864
| 36>    O       -3.05711        1.46191       -0.29594
| 37>    H       -5.61474        3.73396        0.18380
| 38>    H       -5.62298        2.06629        0.83641
| 39>    H       -5.65637        2.35351       -0.96075
| 40>    H       -3.60322        4.74694        0.28390
| 41>    H        0.12023        2.47612       -0.12211
| 42>    H       -0.29109        0.53397        0.87286
| 43>    H        0.41936       -1.23692        0.54813
| 44>    H        1.62796       -1.31578       -2.02842
| 45>    H        2.59454       -3.33365       -2.72398
| 46>    H        3.35003       -5.08648       -3.34073
| 47>    H        2.41440       -6.32799       -4.19620
| 48>    H        3.52414       -6.75329       -2.82684
| 49>    H        0.19945       -7.20454       -1.28130
| 50>    H        1.73298       -7.95541       -1.66322
| 51>    H        0.54694       -7.57424       -2.98505
| 52>    H       -0.63424       -5.47773       -0.69827
| 53>    H       -1.53564       -3.40306       -0.02004
| 54> *
| 55>
| 56>
| 57>                          ****END OF INPUT****
 Total Charge           Charge          ....    0
 Multiplicity           Mult            ....    1
 Number of Electrons    NEL             ....  160
Dispersion correction           -0.014936564
FINAL SINGLE POINT ENERGY      -973.632435181217
Dispersion correction            ... done
Dispersion correction           -0.015095811
FINAL SINGLE POINT ENERGY      -973.675111380895
Dispersion correction            ... done
Dispersion correction           -0.015424557
FINAL SINGLE POINT ENERGY      -973.702264129303
Dispersion correction            ... done
FINAL SINGLE POINT ENERGY      -973.718588393281
FINAL SINGLE POINT ENERGY      -973.727533726460
FINAL SINGLE POINT ENERGY      -973.731511084376
FINAL SINGLE POINT ENERGY      -973.733885359224
FINAL SINGLE POINT ENERGY      -973.735414643781
FINAL SINGLE POINT ENERGY      -973.736756671221
FINAL SINGLE POINT ENERGY      -973.738033013068
FINAL SINGLE POINT ENERGY      -973.745087593656
FINAL SINGLE POINT ENERGY      -973.745245949130
FINAL SINGLE POINT ENERGY      -973.745275948182
FINAL SINGLE POINT ENERGY      -973.745295726312
FINAL SINGLE POINT ENERGY      -973.745302777412
FINAL SINGLE POINT ENERGY      -973.745312989854
FINAL SINGLE POINT ENERGY      -973.745322642240
Dispersion correction            ... done
Dispersion correction           -0.018013350
FINAL SINGLE POINT ENERGY      -973.745329643096
Dispersion correction            ... done
Dispersion correction           -0.018006793
FINAL SINGLE POINT ENERGY      -973.745331313813
Dispersion correction            ... done
                    ***********************HURRAY********************

CARTESIAN COORDINATES (ANGSTROEM)
---------------------------------
  C     -2.648479    0.188117   -2.067794
  C     -1.909040    1.116611   -1.176858
  C     -1.782481    2.446476   -1.334000
  C     -1.032142    3.218964   -0.391230
  C     -0.885838    4.591662   -0.515302
  C     -0.129554    5.337077    0.424844
  N      0.491569    5.922690    1.198583
  C     -1.487586    5.295745   -1.589561
  N     -1.987768    5.843556   -2.471227
  C     -0.438388    2.482409    0.676150
  C     -0.594908    1.141873    0.758839
  C     -0.037522    0.321257    1.825700
  C      0.242006   -0.988909    1.805131
  C      0.231147   -1.937541    0.689353
  C      0.625658   -1.598509   -0.605385
  C      0.621256   -2.518625   -1.631625
  C      0.216945   -3.850432   -1.410722
  N      0.218950   -4.771444   -2.422865
  C      0.475787   -4.345894   -3.781172
  C     -0.338098   -6.087508   -2.199255
  C     -0.164795   -4.197931   -0.101005
  C     -0.134644   -3.264390    0.915401
  O     -1.343556    0.473985   -0.139449
  H     -3.086861    0.727555   -2.903806
  H     -3.438193   -0.315037   -1.507372
  H     -1.968063   -0.578519   -2.444498
  H     -2.256860    2.920654   -2.181741
  H      0.156454    2.982390    1.428228
  H      0.144269    0.868359    2.743005
  H      0.549517   -1.412893    2.757737
  H      0.968454   -0.592247   -0.816782
  H      0.948913   -2.201904   -2.611575
  H      1.462615   -3.885976   -3.872900
  H     -0.270358   -3.627340   -4.141878
  H      0.455002   -5.215148   -4.434067
  H      0.185643   -6.607263   -1.393412
  H     -0.222254   -6.678590   -3.104415
  H     -1.404583   -6.051212   -1.945505
  H     -0.476027   -5.206795    0.129588
  H     -0.423287   -3.572714    1.914953

 Multiplicity           Mult            ....    1
 Number of Electrons    NEL             ....  160
 Basis Dimension        Dim             ....  815

ORBITAL ENERGIES
----------------

  NO   OCC          E(Eh)            E(eV)
   0   2.0000     -19.334363      -526.1148
   1   2.0000     -14.447312      -393.1313
   2   2.0000     -14.418236      -392.3401
   3   2.0000     -14.418186      -392.3388
   4   2.0000     -10.387692      -282.6635
   5   2.0000     -10.387324      -282.6535
   6   2.0000     -10.353156      -281.7237
   7   2.0000     -10.330159      -281.0979
   8   2.0000     -10.328710      -281.0585
   9   2.0000     -10.323599      -280.9194
  10   2.0000     -10.323374      -280.9133
  11   2.0000     -10.307571      -280.4833
  12   2.0000     -10.304952      -280.4120
  13   2.0000     -10.304625      -280.4031
  14   2.0000     -10.303740      -280.3790
  15   2.0000     -10.302145      -280.3356
  16   2.0000     -10.296295      -280.1764
  17   2.0000     -10.291755      -280.0529
  18   2.0000     -10.287760      -279.9442
  19   2.0000     -10.287629      -279.9406
  20   2.0000     -10.285511      -279.8830
  21   2.0000     -10.277444      -279.6635
  22   2.0000     -10.276675      -279.6426
  23   2.0000      -1.268674       -34.5224
  24   2.0000      -1.080893       -29.4126
  25   2.0000      -1.040656       -28.3177
  26   2.0000      -1.024323       -27.8732
  27   2.0000      -0.993368       -27.0309
  28   2.0000      -0.988739       -26.9050
  29   2.0000      -0.972526       -26.4638
  30   2.0000      -0.921954       -25.0876
  31   2.0000      -0.906074       -24.6555
  32   2.0000      -0.877922       -23.8895
  33   2.0000      -0.869334       -23.6558
  34   2.0000      -0.848062       -23.0770
  35   2.0000      -0.842636       -22.9293
  36   2.0000      -0.807740       -21.9797
  37   2.0000      -0.782217       -21.2852
  38   2.0000      -0.767507       -20.8849
  39   2.0000      -0.728703       -19.8290
  40   2.0000      -0.718796       -19.5594
  41   2.0000      -0.701806       -19.0971
  42   2.0000      -0.685216       -18.6457
  43   2.0000      -0.653214       -17.7749
  44   2.0000      -0.635528       -17.2936
  45   2.0000      -0.618010       -16.8169
  46   2.0000      -0.614118       -16.7110
  47   2.0000      -0.608745       -16.5648
  48   2.0000      -0.602780       -16.4025
  49   2.0000      -0.590911       -16.0795
  50   2.0000      -0.577798       -15.7227
  51   2.0000      -0.560789       -15.2599
  52   2.0000      -0.555888       -15.1265
  53   2.0000      -0.553624       -15.0649
  54   2.0000      -0.530833       -14.4447
  55   2.0000      -0.528780       -14.3888
  56   2.0000      -0.527571       -14.3559
  57   2.0000      -0.520233       -14.1563
  58   2.0000      -0.519664       -14.1408
  59   2.0000      -0.513238       -13.9659
  60   2.0000      -0.509035       -13.8515
  61   2.0000      -0.497093       -13.5266
  62   2.0000      -0.493777       -13.4364
  63   2.0000      -0.486006       -13.2249
  64   2.0000      -0.481141       -13.0925
  65   2.0000      -0.479630       -13.0514
  66   2.0000      -0.473111       -12.8740
  67   2.0000      -0.471821       -12.8389
  68   2.0000      -0.454960       -12.3801
  69   2.0000      -0.449870       -12.2416
  70   2.0000      -0.448285       -12.1984
  71   2.0000      -0.442340       -12.0367
  72   2.0000      -0.436508       -11.8780
  73   2.0000      -0.436178       -11.8690
  74   2.0000      -0.427945       -11.6450
  75   2.0000      -0.394345       -10.7307
  76   2.0000      -0.352709        -9.5977
  77   2.0000      -0.350580        -9.5398
  78   2.0000      -0.306509        -8.3405
  79   2.0000      -0.276258        -7.5174
  80   0.0000      -0.025042        -0.6814
  81   0.0000       0.021607         0.5880
  82   0.0000       0.057142         1.5549
  83   0.0000       0.065296         1.7768
  84   0.0000       0.084961         2.3119

MULLIKEN ATOMIC CHARGES
-----------------------
   0 C :   -0.407534
   1 C :    0.296561
   2 C :   -0.322087
   3 C :    0.156589
   4 C :    0.221501
   5 C :   -0.224315
   6 N :   -0.104908
   7 C :   -0.214245
   8 N :   -0.113573
   9 C :   -0.327248
  10 C :    0.371997
  11 C :   -0.296493
  12 C :   -0.153732
  13 C :    0.210318
  14 C :   -0.259691
  15 C :   -0.302007
  16 C :    0.308246
  17 N :   -0.101423
  18 C :   -0.322955
  19 C :   -0.316332
  20 C :   -0.307023
  21 C :   -0.241781
  22 O :   -0.221357
  23 H :    0.164524
  24 H :    0.164707
  25 H :    0.160590
  26 H :    0.190604
  27 H :    0.188591
  28 H :    0.173128
  29 H :    0.160842
  30 H :    0.158966
  31 H :    0.149358
  32 H :    0.147368
  33 H :    0.141511
  34 H :    0.146294
  35 H :    0.144454
  36 H :    0.146773
  37 H :    0.141157
  38 H :    0.152081
  39 H :    0.140541
Sum of atomic charges:   -0.0000000

LOEWDIN ATOMIC CHARGES
----------------------
   0 C :   -0.233478
   1 C :   -0.224477
   2 C :   -0.084677
   3 C :   -0.066723
   4 C :   -0.181025
   5 C :   -0.164625
   6 N :    0.012857
   7 C :   -0.164726
   8 N :    0.011511
   9 C :   -0.072131
  10 C :   -0.196486
  11 C :   -0.139020
  12 C :   -0.082567
  13 C :   -0.175464
  14 C :   -0.101808
  15 C :   -0.140602
  16 C :   -0.189677
  17 N :    0.144100
  18 C :   -0.293890
  19 C :   -0.293512
  20 C :   -0.140875
  21 C :   -0.103554
  22 O :    0.421587
  23 H :    0.143663
  24 H :    0.146603
  25 H :    0.143196
  26 H :    0.173247
  27 H :    0.174853
  28 H :    0.168144
  29 H :    0.165514
  30 H :    0.157369
  31 H :    0.153057
  32 H :    0.120862
  33 H :    0.116365
  34 H :    0.125049
  35 H :    0.120568
  36 H :    0.125242
  37 H :    0.116942
  38 H :    0.152904
  39 H :    0.155682

  Mayer bond orders larger than 0.100000
B(  0-C ,  1-C ) :   0.9177 B(  0-C , 23-H ) :   0.9902 B(  0-C , 24-H ) :   0.9539
B(  0-C , 25-H ) :   0.9495 B(  1-C ,  2-C ) :   1.7254 B(  1-C , 22-O ) :   1.1015
B(  2-C ,  3-C ) :   1.1764 B(  2-C , 26-H ) :   0.8898 B(  3-C ,  4-C ) :   1.4224
B(  3-C ,  9-C ) :   1.1800 B(  4-C ,  5-C ) :   1.0131 B(  4-C ,  7-C ) :   1.0060
B(  5-C ,  6-N ) :   2.9996 B(  7-C ,  8-N ) :   2.9987 B(  9-C , 10-C ) :   1.6321
B(  9-C , 27-H ) :   0.9170 B( 10-C , 11-C ) :   1.0043 B( 10-C , 22-O ) :   1.0784
B( 11-C , 12-C ) :   1.8508 B( 11-C , 28-H ) :   0.9568 B( 12-C , 13-C ) :   0.9689
B( 12-C , 29-H ) :   0.9584 B( 13-C , 14-C ) :   1.2978 B( 13-C , 21-C ) :   1.3276
B( 14-C , 15-C ) :   1.5469 B( 14-C , 30-H ) :   0.9631 B( 15-C , 16-C ) :   1.2300
B( 15-C , 31-H ) :   0.9705 B( 16-C , 17-N ) :   1.2560 B( 16-C , 20-C ) :   1.2537
B( 17-N , 18-C ) :   0.9519 B( 17-N , 19-C ) :   0.9527 B( 18-C , 32-H ) :   0.9623
B( 18-C , 33-H ) :   0.9668 B( 18-C , 34-H ) :   0.9682 B( 19-C , 35-H ) :   0.9623
B( 19-C , 36-H ) :   0.9678 B( 19-C , 37-H ) :   0.9669 B( 20-C , 21-C ) :   1.5308
B( 20-C , 38-H ) :   0.9678 B( 21-C , 39-H ) :   0.9869

Dispersion correction           -0.018001731
FINAL SINGLE POINT ENERGY      -973.745333604504

DIPOLE MOMENT
-------------
                                X             Y             Z
Electronic contribution:     -0.64035      31.65942      10.15504
Nuclear contribution   :      0.17153     -37.86696     -10.84758
                        -----------------------------------------
Total Dipole Moment    :     -0.46882      -6.20754      -0.69254
                        -----------------------------------------
Magnitude (a.u.)       :      6.26362
Magnitude (Debye)      :     15.92085

Rotational constants in cm-1:     0.019148     0.003828     0.003410
Rotational constants in MHz :   574.041789   114.774889   102.233970

                             ****ORCA TERMINATED NORMALLY****
TOTAL RUN TIME: 1 days 11 hours 20 minutes 12 seconds 35 msec
