                         Program Version 4.2.1 -  RELEASE  -
|  1> # avogadro generated ORCA input file
|  2> # Basic Mode
|  3> #
|  4> ! wB97X-D3 OPT def2-TZVP def2/J CPCM
|  5> %cpcm
|  6>   epsilon 3
|  7> end
|  8> %pal
|  9>  nprocs 4
| 10> end
| 11>
| 12> * xyz 0 1
| 13>    C       -1.23949        1.88274        0.00064
| 14>    C        0.14689        1.88590       -0.00064
| 15>    N       -1.99717        3.10127        0.17814
| 16>    N       -1.99143        0.66049       -0.17552
| 17>    N        0.89909        3.11726       -0.09208
| 18>    N        0.90431        0.65768        0.08947
| 19>    C       -1.63184        4.09956        1.17153
| 20>    H       -0.71264        3.82281        1.72675
| 21>    H       -2.44656        4.18522        1.92133
| 22>    H       -1.50677        5.09326        0.69686
| 23>    C       -3.23616        3.31848       -0.55005
| 24>    H       -3.43458        2.50649       -1.28039
| 25>    H       -3.16661        4.26699       -1.12327
| 26>    H       -4.08975        3.38717        0.15719
| 27>    C        0.52907        4.18122       -1.01292
| 28>    H       -0.38901        3.94006       -1.58629
| 29>    H        1.34322        4.32298       -1.75479
| 30>    H        0.39969        5.13855       -0.46962
| 31>    C        2.13729        3.28832        0.64963
| 32>    H        2.33951        2.42795        1.32116
| 33>    H        2.06366        4.19391        1.28804
| 34>    H        2.99038        3.41031       -0.05099
| 35>    C        2.14097        0.49101       -0.65575
| 36>    H        2.33778        1.35180       -1.32837
| 37>    H        2.06901       -0.41528       -1.29336
| 38>    H        2.99660        0.37281        0.04242
| 39>    C        0.54106       -0.40697        1.01222
| 40>    H       -0.37636       -0.16888        1.58795
| 41>    H        1.35784       -0.54489        1.75192
| 42>    H        0.41384       -1.36527        0.47016
| 43>    C       -1.62350       -0.33526       -1.17052
| 44>    H       -0.70720       -0.05333       -1.72795
| 45>    H       -2.43972       -0.42465       -1.91826
| 46>    H       -1.49196       -1.32861       -0.69691
| 47>    C       -3.22730        0.43649        0.55586
| 48>    H       -3.42791        1.24713        1.28712
| 49>    H       -3.15126       -0.51193        1.12840
| 50>    H       -4.08243        0.36371       -0.14910
| 51> *
| 52>
| 53>
| 54>                          ****END OF INPUT****
 Total Charge           Charge          ....    0
 Multiplicity           Mult            ....    1
 Number of Electrons    NEL             ....  112
Dispersion correction           -0.019554641
FINAL SINGLE POINT ENERGY      -614.477427002552
Dispersion correction            ... done
Dispersion correction           -0.020061935
FINAL SINGLE POINT ENERGY      -614.495471713433
Dispersion correction            ... done
Dispersion correction           -0.020665977
FINAL SINGLE POINT ENERGY      -614.500626652384
Dispersion correction            ... done
FINAL SINGLE POINT ENERGY      -614.501536166121
FINAL SINGLE POINT ENERGY      -614.502583405710
FINAL SINGLE POINT ENERGY      -614.503670889508
FINAL SINGLE POINT ENERGY      -614.504729313620
FINAL SINGLE POINT ENERGY      -614.505935993091
FINAL SINGLE POINT ENERGY      -614.507143366918
FINAL SINGLE POINT ENERGY      -614.508263982507
FINAL SINGLE POINT ENERGY      -614.509201155357
FINAL SINGLE POINT ENERGY      -614.509924729089
FINAL SINGLE POINT ENERGY      -614.510325790564
FINAL SINGLE POINT ENERGY      -614.510510324916
FINAL SINGLE POINT ENERGY      -614.510675661291
FINAL SINGLE POINT ENERGY      -614.510781254676
FINAL SINGLE POINT ENERGY      -614.510882786188
Dispersion correction            ... done
Dispersion correction           -0.021063076
FINAL SINGLE POINT ENERGY      -614.510907234322
Dispersion correction            ... done
Dispersion correction           -0.021068127
FINAL SINGLE POINT ENERGY      -614.510888117521
Dispersion correction            ... done
                    ***********************HURRAY********************

CARTESIAN COORDINATES (ANGSTROEM)
---------------------------------
  C     -1.223090    1.882603    0.000203
  C      0.131591    1.885511   -0.001129
  N     -2.000365    2.999659    0.349726
  N     -1.996501    0.762301   -0.347334
  N      0.903704    3.027595   -0.272117
  N      0.909607    0.747232    0.268930
  C     -1.568342    3.887298    1.394400
  H     -1.002007    3.322598    2.137005
  H     -2.443573    4.326173    1.884777
  H     -0.936551    4.718090    1.051617
  C     -2.950659    3.533780   -0.595190
  H     -3.287958    2.732052   -1.251444
  H     -2.533701    4.339068   -1.217714
  H     -3.822777    3.936194   -0.070662
  C      0.464179    3.985177   -1.249518
  H     -0.100167    3.471825   -2.029870
  H      1.335562    4.463209   -1.709135
  H     -0.172272    4.785107   -0.846650
  C      1.852961    3.498181    0.706880
  H      2.198934    2.652514    1.300555
  H      1.432934    4.251459    1.389844
  H      2.719725    3.945450    0.210594
  C      1.859247    0.280545   -0.711583
  H      2.198755    1.127126   -1.307652
  H      1.441704   -0.476406   -1.392017
  H      2.729887   -0.160830   -0.216795
  C      0.476999   -0.212227    1.247598
  H     -0.091197    0.297947    2.027197
  H      1.351869   -0.683329    1.707807
  H     -0.153090   -1.017561    0.845541
  C     -1.562613   -0.124097   -1.392254
  H     -0.999200    0.442527   -2.135578
  H     -2.436790   -0.566343   -1.881474
  H     -0.927236   -0.952322   -1.049885
  C     -2.942449    0.224451    0.599772
  H     -3.281606    1.024749    1.256798
  H     -2.520882   -0.579139    1.221479
  H     -3.814069   -0.181666    0.077290

 Multiplicity           Mult            ....    1
 Number of Electrons    NEL             ....  112
 Basis Dimension        Dim             ....  578

ORBITAL ENERGIES
----------------

  NO   OCC          E(Eh)            E(eV)
   0   2.0000     -14.406031      -392.0080
   1   2.0000     -14.406016      -392.0076
   2   2.0000     -14.405751      -392.0004
   3   2.0000     -14.405746      -392.0003
   4   2.0000     -10.299846      -280.2730
   5   2.0000     -10.299090      -280.2525
   6   2.0000     -10.280867      -279.7566
   7   2.0000     -10.280846      -279.7561
   8   2.0000     -10.280734      -279.7530
   9   2.0000     -10.280700      -279.7521
  10   2.0000     -10.279550      -279.7208
  11   2.0000     -10.279513      -279.7198
  12   2.0000     -10.279482      -279.7189
  13   2.0000     -10.279420      -279.7172
  14   2.0000      -1.077919       -29.3317
  15   2.0000      -1.046174       -28.4678
  16   2.0000      -1.015288       -27.6274
  17   2.0000      -1.000250       -27.2182
  18   2.0000      -0.856512       -23.3069
  19   2.0000      -0.819055       -22.2876
  20   2.0000      -0.819026       -22.2868
  21   2.0000      -0.818247       -22.2656
  22   2.0000      -0.813796       -22.1445
  23   2.0000      -0.788636       -21.4599
  24   2.0000      -0.739227       -20.1154
  25   2.0000      -0.720841       -19.6151
  26   2.0000      -0.691328       -18.8120
  27   2.0000      -0.624442       -16.9919
  28   2.0000      -0.608577       -16.5602
  29   2.0000      -0.602179       -16.3861
  30   2.0000      -0.579636       -15.7727
  31   2.0000      -0.559445       -15.2233
  32   2.0000      -0.558279       -15.1915
  33   2.0000      -0.557258       -15.1638
  34   2.0000      -0.543809       -14.7978
  35   2.0000      -0.529213       -14.4006
  36   2.0000      -0.528871       -14.3913
  37   2.0000      -0.526249       -14.3200
  38   2.0000      -0.517865       -14.0918
  39   2.0000      -0.488904       -13.3038
  40   2.0000      -0.479016       -13.0347
  41   2.0000      -0.478039       -13.0081
  42   2.0000      -0.476249       -12.9594
  43   2.0000      -0.475251       -12.9322
  44   2.0000      -0.472299       -12.8519
  45   2.0000      -0.464743       -12.6463
  46   2.0000      -0.456259       -12.4154
  47   2.0000      -0.455624       -12.3982
  48   2.0000      -0.454585       -12.3699
  49   2.0000      -0.453142       -12.3306
  50   2.0000      -0.448972       -12.2171
  51   2.0000      -0.364712        -9.9243
  52   2.0000      -0.343726        -9.3533
  53   2.0000      -0.297471        -8.0946
  54   2.0000      -0.290258        -7.8983
  55   2.0000      -0.227022        -6.1776
  56   0.0000       0.102478         2.7886
  57   0.0000       0.120653         3.2831
  58   0.0000       0.134292         3.6543
  59   0.0000       0.145019         3.9462
  60   0.0000       0.145186         3.9507

MULLIKEN ATOMIC CHARGES
-----------------------
   0 C :    0.031065
   1 C :    0.004864
   2 N :   -0.168804
   3 N :   -0.168680
   4 N :   -0.163765
   5 N :   -0.163374
   6 C :   -0.302161
   7 H :    0.137377
   8 H :    0.130901
   9 H :    0.104960
  10 C :   -0.296360
  11 H :    0.143557
  12 H :    0.113524
  13 H :    0.127186
  14 C :   -0.304487
  15 H :    0.138329
  16 H :    0.131001
  17 H :    0.105014
  18 C :   -0.297012
  19 H :    0.142394
  20 H :    0.113431
  21 H :    0.126639
  22 C :   -0.297355
  23 H :    0.142379
  24 H :    0.113825
  25 H :    0.126512
  26 C :   -0.303955
  27 H :    0.138328
  28 H :    0.130676
  29 H :    0.104658
  30 C :   -0.302118
  31 H :    0.137074
  32 H :    0.130822
  33 H :    0.105506
  34 C :   -0.295655
  35 H :    0.143494
  36 H :    0.113085
  37 H :    0.127122
Sum of atomic charges:   -0.0000000

LOEWDIN ATOMIC CHARGES
----------------------
   0 C :   -0.304593
   1 C :   -0.305046
   2 N :    0.111696
   3 N :    0.111657
   4 N :    0.111973
   5 N :    0.111985
   6 C :   -0.317794
   7 H :    0.122389
   8 H :    0.114700
   9 H :    0.100247
  10 C :   -0.319370
  11 H :    0.122786
  12 H :    0.104019
  13 H :    0.113698
  14 C :   -0.318014
  15 H :    0.122647
  16 H :    0.114680
  17 H :    0.100290
  18 C :   -0.319536
  19 H :    0.122640
  20 H :    0.103939
  21 H :    0.113764
  22 C :   -0.319495
  23 H :    0.122651
  24 H :    0.104062
  25 H :    0.113728
  26 C :   -0.317993
  27 H :    0.122643
  28 H :    0.114638
  29 H :    0.100236
  30 C :   -0.317755
  31 H :    0.122354
  32 H :    0.114662
  33 H :    0.100378
  34 C :   -0.319292
  35 H :    0.122793
  36 H :    0.103922
  37 H :    0.113711

  Mayer bond orders larger than 0.100000
B(  0-C ,  1-C ) :   1.7599 B(  0-C ,  2-N ) :   1.0929 B(  0-C ,  3-N ) :   1.0933
B(  1-C ,  4-N ) :   1.0978 B(  1-C ,  5-N ) :   1.0980 B(  2-N ,  6-C ) :   0.9721
B(  2-N , 10-C ) :   0.9338 B(  3-N , 30-C ) :   0.9721 B(  3-N , 34-C ) :   0.9338
B(  4-N , 14-C ) :   0.9724 B(  4-N , 18-C ) :   0.9354 B(  5-N , 22-C ) :   0.9356
B(  5-N , 26-C ) :   0.9726 B(  6-C ,  7-H ) :   0.9718 B(  6-C ,  8-H ) :   0.9709
B(  6-C ,  9-H ) :   0.9685 B( 10-C , 11-H ) :   0.9730 B( 10-C , 12-H ) :   0.9660
B( 10-C , 13-H ) :   0.9741 B( 14-C , 15-H ) :   0.9714 B( 14-C , 16-H ) :   0.9712
B( 14-C , 17-H ) :   0.9685 B( 18-C , 19-H ) :   0.9736 B( 18-C , 20-H ) :   0.9659
B( 18-C , 21-H ) :   0.9741 B( 22-C , 23-H ) :   0.9735 B( 22-C , 24-H ) :   0.9659
B( 22-C , 25-H ) :   0.9741 B( 26-C , 27-H ) :   0.9713 B( 26-C , 28-H ) :   0.9712
B( 26-C , 29-H ) :   0.9685 B( 30-C , 31-H ) :   0.9719 B( 30-C , 32-H ) :   0.9709
B( 30-C , 33-H ) :   0.9684 B( 34-C , 35-H ) :   0.9730 B( 34-C , 36-H ) :   0.9661
B( 34-C , 37-H ) :   0.9741

Dispersion correction           -0.021068484
FINAL SINGLE POINT ENERGY      -614.510903815922

DIPOLE MOMENT
-------------
                                X             Y             Z
Electronic contribution:      0.00290       0.00011      -0.00403
Nuclear contribution   :     -0.00577      -0.00083       0.00370
                        -----------------------------------------
Total Dipole Moment    :     -0.00287      -0.00072      -0.00033
                        -----------------------------------------
Magnitude (a.u.)       :      0.00297
Magnitude (Debye)      :      0.00756

Rotational constants in cm-1:     0.025129     0.023452     0.015689
Rotational constants in MHz :   753.338684   703.085228   470.330432

                             ****ORCA TERMINATED NORMALLY****
TOTAL RUN TIME: 0 days 11 hours 37 minutes 50 seconds 520 msec
