                         Program Version 4.2.1 -  RELEASE  -
                         Program Version 4.2.1 -  RELEASE  -
                         Program Version 4.2.1 -  RELEASE  -
|  1> # avogadro generated ORCA input file
|  2> # Basic Mode
|  3> #
|  4> ! wB97X-D3 OPT def2-TZVP def2/J CPCM
|  5> %cpcm
|  6>   epsilon 3
|  7> end
|  8> %pal
|  9>  nprocs 4
| 10> end
| 11>
| 12> * xyz 0 1
| 13>    C       -4.85490        2.68203        0.00000
| 14>    C       -4.84715        1.28595        0.00000
| 15>    C       -3.64970        3.39253        0.00000
| 16>    H       -5.79859        3.21252        0.00000
| 17>    C       -3.63540        0.59124        0.00000
| 18>    H       -5.78257        0.74119        0.00000
| 19>    C       -2.42237        2.70676        0.00000
| 20>    H       -3.67978        4.47498        0.00000
| 21>    C       -2.41841        1.29176        0.00000
| 22>    H       -3.65085       -0.49136        0.00000
| 23>    C       -1.20316        3.40667        0.00000
| 24>    C       -1.20041        0.59930        0.00000
| 25>    C        0.01924        2.71066        0.00000
| 26>    H       -1.20697        4.49021        0.00000
| 27>    C        0.01610        1.29687        0.00000
| 28>    H       -1.19942       -0.48449        0.00000
| 29>    C        1.24445        3.40249        0.00000
| 30>    C        1.23000        0.59697        0.00000
| 31>    C        2.46279        2.69840        0.00000
| 32>    H        1.24968        4.48634        0.00000
| 33>    C        2.45110        1.28460        0.00000
| 34>    H        1.22452       -0.48658        0.00000
| 35>    C        3.69198        3.38153        0.00000
| 36>    C        3.66008        0.57366        0.00000
| 37>    C        4.90369        2.66839        0.00000
| 38>    H        3.70706        4.46536        0.00000
| 39>    C        4.88466        1.25335        0.00000
| 40>    H        3.64748       -0.51017        0.00000
| 41>    C        6.13762        3.34137        0.00000
| 42>    C        6.09448        0.53977        0.00000
| 43>    C        7.33510        2.61794        0.00000
| 44>    H        6.17868        4.42313        0.00000
| 45>    C        7.31307        1.22198        0.00000
| 46>    H        6.09848       -0.54334        0.00000
| 47>    H        8.28385        3.13896        0.00000
| 48>    H        8.24278        0.66739        0.00000
| 49> *
| 50>
| 51>
| 52>                          ****END OF INPUT****
 Total Charge           Charge          ....    0
 Multiplicity           Mult            ....    1
 Number of Electrons    NEL             ....  146
Dispersion correction           -0.013916562
FINAL SINGLE POINT ENERGY      -846.813669151114
Dispersion correction            ... done
Dispersion correction           -0.013927833
FINAL SINGLE POINT ENERGY      -846.824944818659
Dispersion correction            ... done
Dispersion correction           -0.013934471
FINAL SINGLE POINT ENERGY      -846.828592052465
Dispersion correction            ... done
FINAL SINGLE POINT ENERGY      -846.828815762974
Dispersion correction            ... done
Dispersion correction           -0.013926483
FINAL SINGLE POINT ENERGY      -846.828890503346
Dispersion correction            ... done
Dispersion correction           -0.013926431
FINAL SINGLE POINT ENERGY      -846.828900077550
Dispersion correction            ... done
                    ***********************HURRAY********************

CARTESIAN COORDINATES (ANGSTROEM)
---------------------------------
  C     -4.835727    2.725082   -0.000016
  C     -4.843206    1.290136   -0.000019
  C     -3.670725    3.406803    0.000096
  H     -5.779166    3.257534   -0.000324
  C     -3.685443    0.596189    0.000088
  H     -5.792185    0.767628   -0.000311
  C     -2.408933    2.716621    0.000210
  H     -3.662163    4.491182    0.000018
  C     -2.416454    1.273070    0.000202
  H     -3.688389   -0.488231    0.000011
  C     -1.210504    3.388744    0.000193
  C     -1.225140    0.588505    0.000179
  C      0.024377    2.702060    0.000122
  H     -1.204809    4.473881    0.000182
  C      0.016850    1.262233    0.000115
  H     -1.230889   -0.496640    0.000160
  C      1.244191    3.375388    0.000010
  C      1.229543    0.576288   -0.000003
  C      2.456907    2.689392   -0.000110
  H      1.249895    4.460433    0.000019
  C      2.449337    1.249563   -0.000116
  H      1.223840   -0.508761   -0.000004
  C      3.698916    3.363132   -0.000180
  C      3.684196    0.562891   -0.000190
  C      4.890234    2.678504   -0.000209
  H      3.704682    4.448273   -0.000162
  C      4.882620    1.234949   -0.000212
  H      3.678485   -0.522251   -0.000175
  C      6.159236    3.355351   -0.000100
  C      6.144396    0.544736   -0.000095
  C      7.316988    2.661358    0.000011
  H      6.162219    4.439770   -0.000025
  C      7.309409    1.226412    0.000015
  H      6.135808   -0.539644   -0.000012
  H      8.265977    3.183842    0.000302
  H      8.252838    0.693937    0.000330

 Multiplicity           Mult            ....    1
 Number of Electrons    NEL             ....  146
 Basis Dimension        Dim             ....  766

ORBITAL ENERGIES
----------------

  NO   OCC          E(Eh)            E(eV)
   0   2.0000     -10.293524      -280.1010
   1   2.0000     -10.293510      -280.1007
   2   2.0000     -10.293165      -280.0913
   3   2.0000     -10.293132      -280.0904
   4   2.0000     -10.292728      -280.0794
   5   2.0000     -10.292720      -280.0792
   6   2.0000     -10.292367      -280.0695
   7   2.0000     -10.292366      -280.0695
   8   2.0000     -10.283419      -279.8261
   9   2.0000     -10.283385      -279.8251
  10   2.0000     -10.282954      -279.8134
  11   2.0000     -10.282953      -279.8134
  12   2.0000     -10.282925      -279.8126
  13   2.0000     -10.282916      -279.8124
  14   2.0000     -10.281683      -279.7788
  15   2.0000     -10.281677      -279.7786
  16   2.0000     -10.281659      -279.7782
  17   2.0000     -10.281658      -279.7781
  18   2.0000     -10.280668      -279.7512
  19   2.0000     -10.280668      -279.7512
  20   2.0000     -10.280320      -279.7417
  21   2.0000     -10.280320      -279.7417
  22   2.0000      -1.017026       -27.6747
  23   2.0000      -1.000944       -27.2371
  24   2.0000      -0.976554       -26.5734
  25   2.0000      -0.943754       -25.6809
  26   2.0000      -0.916297       -24.9337
  27   2.0000      -0.903613       -24.5886
  28   2.0000      -0.900487       -24.5035
  29   2.0000      -0.876034       -23.8381
  30   2.0000      -0.858221       -23.3534
  31   2.0000      -0.843512       -22.9531
  32   2.0000      -0.805384       -21.9156
  33   2.0000      -0.783713       -21.3259
  34   2.0000      -0.736544       -20.0424
  35   2.0000      -0.731344       -19.9009
  36   2.0000      -0.721094       -19.6220
  37   2.0000      -0.708213       -19.2715
  38   2.0000      -0.699653       -19.0385
  39   2.0000      -0.680997       -18.5309
  40   2.0000      -0.631025       -17.1711
  41   2.0000      -0.629831       -17.1386
  42   2.0000      -0.623836       -16.9754
  43   2.0000      -0.597796       -16.2669
  44   2.0000      -0.584624       -15.9084
  45   2.0000      -0.568736       -15.4761
  46   2.0000      -0.558323       -15.1927
  47   2.0000      -0.554348       -15.0846
  48   2.0000      -0.552421       -15.0321
  49   2.0000      -0.534896       -14.5553
  50   2.0000      -0.526503       -14.3269
  51   2.0000      -0.525867       -14.3096
  52   2.0000      -0.519548       -14.1376
  53   2.0000      -0.510959       -13.9039
  54   2.0000      -0.509592       -13.8667
  55   2.0000      -0.505110       -13.7447
  56   2.0000      -0.499808       -13.6005
  57   2.0000      -0.495989       -13.4966
  58   2.0000      -0.472929       -12.8690
  59   2.0000      -0.472466       -12.8564
  60   2.0000      -0.451557       -12.2875
  61   2.0000      -0.444003       -12.0819
  62   2.0000      -0.427860       -11.6427
  63   2.0000      -0.426676       -11.6104
  64   2.0000      -0.424602       -11.5540
  65   2.0000      -0.416936       -11.3454
  66   2.0000      -0.413899       -11.2628
  67   2.0000      -0.391415       -10.6509
  68   2.0000      -0.373652       -10.1676
  69   2.0000      -0.355108        -9.6630
  70   2.0000      -0.318754        -8.6737
  71   2.0000      -0.305598        -8.3157
  72   2.0000      -0.247276        -6.7287
  73   0.0000      -0.036392        -0.9903
  74   0.0000       0.026697         0.7265
  75   0.0000       0.035951         0.9783
  76   0.0000       0.075048         2.0422
  77   0.0000       0.097529         2.6539

MULLIKEN ATOMIC CHARGES
-----------------------
   0 C :   -0.128202
   1 C :   -0.128834
   2 C :   -0.262398
   3 H :    0.152720
   4 C :   -0.262053
   5 H :    0.152994
   6 C :    0.164292
   7 H :    0.147035
   8 C :    0.164511
   9 H :    0.147055
  10 C :   -0.317604
  11 C :   -0.317655
  12 C :    0.195373
  13 H :    0.143958
  14 C :    0.195469
  15 H :    0.143957
  16 C :   -0.334849
  17 C :   -0.334829
  18 C :    0.195433
  19 H :    0.144229
  20 C :    0.195404
  21 H :    0.144222
  22 C :   -0.317663
  23 C :   -0.317603
  24 C :    0.164486
  25 H :    0.143961
  26 C :    0.164317
  27 H :    0.143952
  28 C :   -0.262037
  29 C :   -0.262410
  30 C :   -0.128846
  31 H :    0.147058
  32 C :   -0.128192
  33 H :    0.147034
  34 H :    0.153000
  35 H :    0.152716
Sum of atomic charges:   -0.0000000

LOEWDIN ATOMIC CHARGES
----------------------
   0 C :   -0.146698
   1 C :   -0.146722
   2 C :   -0.106707
   3 H :    0.151195
   4 C :   -0.106701
   5 H :    0.151215
   6 C :   -0.100221
   7 H :    0.154878
   8 C :   -0.100244
   9 H :    0.154887
  10 C :   -0.061270
  11 C :   -0.061283
  12 C :   -0.100189
  13 H :    0.159076
  14 C :   -0.100212
  15 H :    0.159083
  16 C :   -0.059321
  17 C :   -0.059333
  18 C :   -0.100192
  19 H :    0.159236
  20 C :   -0.100209
  21 H :    0.159244
  22 C :   -0.061277
  23 C :   -0.061278
  24 C :   -0.100234
  25 H :    0.159078
  26 C :   -0.100231
  27 H :    0.159082
  28 C :   -0.106703
  29 C :   -0.106707
  30 C :   -0.146717
  31 H :    0.154886
  32 C :   -0.146702
  33 H :    0.154880
  34 H :    0.151214
  35 H :    0.151197

  Mayer bond orders larger than 0.100000
B(  0-C ,  1-C ) :   1.1116 B(  0-C ,  2-C ) :   1.6691 B(  0-C ,  3-H ) :   0.9850
B(  1-C ,  4-C ) :   1.6692 B(  1-C ,  5-H ) :   0.9848 B(  2-C ,  6-C ) :   1.0920
B(  2-C ,  7-H ) :   0.9917 B(  4-C ,  8-C ) :   1.0924 B(  4-C ,  9-H ) :   0.9916
B(  6-C ,  8-C ) :   1.1599 B(  6-C , 10-C ) :   1.4472 B(  8-C , 11-C ) :   1.4465
B( 10-C , 12-C ) :   1.2063 B( 10-C , 13-H ) :   0.9822 B( 11-C , 14-C ) :   1.2068
B( 11-C , 15-H ) :   0.9823 B( 12-C , 14-C ) :   1.1737 B( 12-C , 16-C ) :   1.3097
B( 14-C , 17-C ) :   1.3090 B( 16-C , 18-C ) :   1.3090 B( 16-C , 19-H ) :   0.9893
B( 17-C , 20-C ) :   1.3097 B( 17-C , 21-H ) :   0.9893 B( 18-C , 20-C ) :   1.1737
B( 18-C , 22-C ) :   1.2068 B( 20-C , 23-C ) :   1.2062 B( 22-C , 24-C ) :   1.4465
B( 22-C , 25-H ) :   0.9823 B( 23-C , 26-C ) :   1.4472 B( 23-C , 27-H ) :   0.9822
B( 24-C , 26-C ) :   1.1599 B( 24-C , 28-C ) :   1.0924 B( 26-C , 29-C ) :   1.0920
B( 28-C , 30-C ) :   1.6692 B( 28-C , 31-H ) :   0.9916 B( 29-C , 32-C ) :   1.6691
B( 29-C , 33-H ) :   0.9917 B( 30-C , 32-C ) :   1.1116 B( 30-C , 34-H ) :   0.9848
B( 32-C , 35-H ) :   0.9850

Dispersion correction           -0.013926767
FINAL SINGLE POINT ENERGY      -846.828901983207

DIPOLE MOMENT
-------------
                                X             Y             Z
Electronic contribution:     -0.00000       0.00015      -0.00001
Nuclear contribution   :      0.00001      -0.00011       0.00001
                        -----------------------------------------
Total Dipole Moment    :      0.00001       0.00004       0.00001
                        -----------------------------------------
Magnitude (a.u.)       :      0.00004
Magnitude (Debye)      :      0.00011

Rotational constants in cm-1:     0.044435     0.003961     0.003637
Rotational constants in MHz :  1332.123290   118.759905   109.038988

                             ****ORCA TERMINATED NORMALLY****
TOTAL RUN TIME: 0 days 8 hours 5 minutes 42 seconds 10 msec
