                         Program Version 4.2.1 -  RELEASE  -
|  1> # avogadro generated ORCA input file
|  2> # Basic Mode
|  3> #
|  4> ! wB97X-D3 OPT def2-TZVP def2/J CPCM
|  5> %cpcm
|  6>   epsilon 3
|  7> end
|  8> %pal
|  9>  nprocs 8
| 10> end
| 11>
| 12> * xyz 0 1
| 13>    F        0.97706       -0.15118       -0.17012
| 14>    C        2.33519       -0.17475       -0.13988
| 15>    C        2.95161        1.07471       -0.11490
| 16>    F        2.12493        2.15255       -0.12367
| 17>    C        4.35611        1.21103       -0.08208
| 18>    C        5.11773        0.01368       -0.07578
| 19>    F        6.47566        0.07502       -0.04461
| 20>    C        4.51117       -1.26798       -0.10078
| 21>    C        5.44962       -2.46138       -0.09034
| 22>    C        3.07569       -1.39169       -0.13406
| 23>    C        2.40283       -2.60230       -0.15991
| 24>    C        3.02374       -3.90702       -0.15719
| 25>    N        3.45692       -4.98098       -0.15715
| 26>    C        0.95766       -2.70934       -0.19311
| 27>    N       -0.18902       -2.86801       -0.22044
| 28>    C        4.95046        2.45106       -0.05690
| 29>    C        4.16447        3.75206       -0.06211
| 30>    N        3.51242        4.83134       -0.06643
| 31>    C        6.38381        2.64962       -0.02229
| 32>    N        7.51862        2.87694        0.00576
| 33>    H        6.52488       -2.19513       -0.06391
| 34>    H        5.31104       -3.05944       -1.01467
| 35>    H        5.27008       -3.07566        0.81614
| 36> *
| 37>
| 38>
| 39>                          ****END OF INPUT****
 Total Charge           Charge          ....    0
 Multiplicity           Mult            ....    1
 Number of Electrons    NEL             ....  136
Dispersion correction           -0.010387343
FINAL SINGLE POINT ENERGY     -1015.621374669357
Dispersion correction            ... done
Dispersion correction           -0.010458871
FINAL SINGLE POINT ENERGY     -1015.665095210557
Dispersion correction            ... done
Dispersion correction           -0.010443059
FINAL SINGLE POINT ENERGY     -1015.668984090529
Dispersion correction            ... done
FINAL SINGLE POINT ENERGY     -1015.669659766372
FINAL SINGLE POINT ENERGY     -1015.669832089765
FINAL SINGLE POINT ENERGY     -1015.669892754371
FINAL SINGLE POINT ENERGY     -1015.669914490760
Dispersion correction            ... done
Dispersion correction           -0.010416961
FINAL SINGLE POINT ENERGY     -1015.669925071994
Dispersion correction            ... done
Dispersion correction           -0.010416365
FINAL SINGLE POINT ENERGY     -1015.669926288850
Dispersion correction            ... done
                    ***********************HURRAY********************

CARTESIAN COORDINATES (ANGSTROEM)
---------------------------------
  F      1.005405   -0.198588   -0.177486
  C      2.325037   -0.142396   -0.144363
  C      2.899234    1.064457   -0.121516
  F      2.133540    2.139823   -0.132689
  C      4.333479    1.229488   -0.085240
  C      5.071156   -0.024147   -0.080895
  F      6.392752    0.113668   -0.050420
  C      4.541851   -1.258046   -0.102754
  C      5.454707   -2.445997   -0.089687
  C      3.080678   -1.385564   -0.135987
  C      2.415059   -2.574938   -0.158493
  C      3.021093   -3.873681   -0.157541
  N      3.389495   -4.961142   -0.159828
  C      0.986023   -2.712042   -0.185973
  N     -0.138010   -2.943701   -0.208586
  C      4.931068    2.450233   -0.056262
  C      4.212356    3.690471   -0.056644
  N      3.722606    4.728462   -0.054243
  C      6.348103    2.661584   -0.020432
  N      7.462558    2.934519    0.009091
  H      6.490444   -2.123781   -0.062730
  H      5.313273   -3.056659   -0.981000
  H      5.270774   -3.068871    0.785248

 Multiplicity           Mult            ....    1
 Number of Electrons    NEL             ....  136
 Basis Dimension        Dim             ....  638

ORBITAL ENERGIES
----------------

  NO   OCC          E(Eh)            E(eV)
   0   2.0000     -24.857217      -676.3993
   1   2.0000     -24.857052      -676.3948
   2   2.0000     -24.850140      -676.2067
   3   2.0000     -14.460752      -393.4971
   4   2.0000     -14.458121      -393.4255
   5   2.0000     -14.457681      -393.4135
   6   2.0000     -14.455958      -393.3666
   7   2.0000     -10.433228      -283.9026
   8   2.0000     -10.432361      -283.8790
   9   2.0000     -10.429667      -283.8057
  10   2.0000     -10.409400      -283.2542
  11   2.0000     -10.406457      -283.1741
  12   2.0000     -10.399002      -282.9712
  13   2.0000     -10.398556      -282.9591
  14   2.0000     -10.361294      -281.9451
  15   2.0000     -10.361153      -281.9413
  16   2.0000     -10.358598      -281.8718
  17   2.0000     -10.358515      -281.8695
  18   2.0000     -10.357169      -281.8329
  19   2.0000     -10.301950      -280.3303
  20   2.0000      -1.422176       -38.6994
  21   2.0000      -1.406178       -38.2641
  22   2.0000      -1.404297       -38.2129
  23   2.0000      -1.086134       -29.5552
  24   2.0000      -1.080099       -29.3910
  25   2.0000      -1.060794       -28.8657
  26   2.0000      -1.059727       -28.8366
  27   2.0000      -1.059475       -28.8298
  28   2.0000      -1.016942       -27.6724
  29   2.0000      -0.969377       -26.3781
  30   2.0000      -0.954815       -25.9818
  31   2.0000      -0.892081       -24.2747
  32   2.0000      -0.861743       -23.4492
  33   2.0000      -0.818724       -22.2786
  34   2.0000      -0.789619       -21.4866
  35   2.0000      -0.762875       -20.7589
  36   2.0000      -0.738168       -20.0866
  37   2.0000      -0.726890       -19.7797
  38   2.0000      -0.709957       -19.3189
  39   2.0000      -0.679422       -18.4880
  40   2.0000      -0.666829       -18.1453
  41   2.0000      -0.663733       -18.0611
  42   2.0000      -0.656898       -17.8751
  43   2.0000      -0.635055       -17.2807
  44   2.0000      -0.629359       -17.1257
  45   2.0000      -0.617199       -16.7948
  46   2.0000      -0.585296       -15.9267
  47   2.0000      -0.571694       -15.5566
  48   2.0000      -0.570344       -15.5198
  49   2.0000      -0.555259       -15.1094
  50   2.0000      -0.542288       -14.7564
  51   2.0000      -0.537362       -14.6224
  52   2.0000      -0.531755       -14.4698
  53   2.0000      -0.519241       -14.1293
  54   2.0000      -0.511970       -13.9314
  55   2.0000      -0.510777       -13.8990
  56   2.0000      -0.504972       -13.7410
  57   2.0000      -0.503957       -13.7134
  58   2.0000      -0.493946       -13.4410
  59   2.0000      -0.480391       -13.0721
  60   2.0000      -0.480100       -13.0642
  61   2.0000      -0.480015       -13.0619
  62   2.0000      -0.472325       -12.8526
  63   2.0000      -0.463996       -12.6260
  64   2.0000      -0.460452       -12.5295
  65   2.0000      -0.438374       -11.9288
  66   2.0000      -0.388620       -10.5749
  67   2.0000      -0.345275        -9.3954
  68   0.0000      -0.116670        -3.1748
  69   0.0000       0.005485         0.1493
  70   0.0000       0.038267         1.0413
  71   0.0000       0.044511         1.2112
  72   0.0000       0.051002         1.3878

MULLIKEN ATOMIC CHARGES
-----------------------
   0 F :   -0.160938
   1 C :    0.273096
   2 C :    0.272394
   3 F :   -0.161092
   4 C :   -0.190200
   5 C :    0.308636
   6 F :   -0.182469
   7 C :   -0.073378
   8 C :   -0.441595
   9 C :   -0.012644
  10 C :    0.409869
  11 C :   -0.204724
  12 N :   -0.024498
  13 C :   -0.238887
  14 N :   -0.038918
  15 C :    0.437344
  16 C :   -0.223734
  17 N :   -0.035073
  18 C :   -0.221638
  19 N :   -0.037566
  20 H :    0.177116
  21 H :    0.184374
  22 H :    0.184524
Sum of atomic charges:   -0.0000000

LOEWDIN ATOMIC CHARGES
----------------------
   0 F :    0.274381
   1 C :   -0.189386
   2 C :   -0.197056
   3 F :    0.272282
   4 C :   -0.009194
   5 C :   -0.178404
   6 F :    0.257122
   7 C :   -0.081226
   8 C :   -0.223450
   9 C :    0.005336
  10 C :   -0.085524
  11 C :   -0.136451
  12 N :    0.086467
  13 C :   -0.137084
  14 N :    0.080086
  15 C :   -0.084671
  16 C :   -0.131338
  17 N :    0.084220
  18 C :   -0.133507
  19 N :    0.082166
  20 H :    0.144701
  21 H :    0.150218
  22 H :    0.150311

  Mayer bond orders larger than 0.100000
B(  0-F ,  1-C ) :   0.9964 B(  1-C ,  2-C ) :   1.7252 B(  1-C ,  9-C ) :   1.1067
B(  2-C ,  3-F ) :   1.0292 B(  2-C ,  4-C ) :   1.0597 B(  4-C ,  5-C ) :   1.0689
B(  4-C , 15-C ) :   1.5782 B(  5-C ,  6-F ) :   0.9969 B(  5-C ,  7-C ) :   1.7826
B(  7-C ,  8-C ) :   0.9582 B(  7-C ,  9-C ) :   0.9767 B(  8-C , 20-H ) :   0.9590
B(  8-C , 21-H ) :   0.9583 B(  8-C , 22-H ) :   0.9586 B(  9-C , 10-C ) :   1.5840
B( 10-C , 11-C ) :   0.9713 B( 10-C , 13-C ) :   0.9321 B( 11-C , 12-N ) :   2.9672
B( 13-C , 14-N ) :   2.9866 B( 15-C , 16-C ) :   0.9513 B( 15-C , 18-C ) :   0.9498
B( 16-C , 17-N ) :   2.9815 B( 18-C , 19-N ) :   2.9822

Dispersion correction           -0.010416257
FINAL SINGLE POINT ENERGY     -1015.669927040535

DIPOLE MOMENT
-------------
                                X             Y             Z
Electronic contribution:     -6.30148       8.85297      -0.09592
Nuclear contribution   :      7.05843      -9.64195       0.09553
                        -----------------------------------------
Total Dipole Moment    :      0.75695      -0.78898      -0.00039
                        -----------------------------------------
Magnitude (a.u.)       :      1.09337
Magnitude (Debye)      :      2.77914

Rotational constants in cm-1:     0.020982     0.008048     0.005823
Rotational constants in MHz :   629.020001   241.286523   174.582152

                             ****ORCA TERMINATED NORMALLY****
TOTAL RUN TIME: 0 days 4 hours 10 minutes 24 seconds 721 msec
