                         Program Version 4.2.1 -  RELEASE  -
                         Program Version 4.2.1 -  RELEASE  -
|  1> # avogadro generated ORCA input file
|  2> # Basic Mode
|  3> #
|  4> ! wB97X-D3 OPT def2-TZVP def2/J CPCM
|  5> %cpcm
|  6>   epsilon 3
|  7> end
|  8> %pal
|  9>  nprocs 4
| 10> end
| 11>
| 12> * xyz 0 1
| 13>    C        1.00267        2.58484        0.69937
| 14>    C        0.22199        1.32048        0.44847
| 15>    H        0.67918        3.05787        1.64849
| 16>    H        0.83457        3.29456       -0.13945
| 17>    H        2.09487        2.39123        0.75786
| 18>    C       -1.96477        2.64116        0.42069
| 19>    C       -1.19812        1.34888        0.31133
| 20>    H       -3.05499        2.48714        0.27396
| 21>    H       -1.61678        3.34625       -0.36452
| 22>    H       -1.80796        3.09867        1.41867
| 23>    C        0.91762        0.09871        0.30084
| 24>    C       -1.89707        0.15668        0.02162
| 25>    C        0.18926       -1.05147       -0.02041
| 26>    H        1.99515        0.07511        0.37626
| 27>    C       -1.16539       -1.01769       -0.15666
| 28>    H       -2.97044        0.15938       -0.11745
| 29>    N        0.66356       -2.34455       -0.35030
| 30>    N       -1.63112       -2.27489       -0.59422
| 31>    C       -0.46356       -3.09453       -0.90877
| 32>    C       -0.52733       -4.57410       -0.53640
| 33>    H       -0.37291       -3.09935       -2.01741
| 34>    C        2.04569       -2.77788       -0.30260
| 35>    H        2.13040       -3.67486        0.34700
| 36>    H        2.70539       -2.00154        0.13051
| 37>    H        2.40483       -3.01442       -1.32338
| 38>    C       -3.00849       -2.56169       -0.93562
| 39>    H       -3.38123       -1.81176       -1.66256
| 40>    H       -3.63312       -2.52027       -0.01699
| 41>    H       -3.10238       -3.56758       -1.39313
| 42>    C        0.44623       -5.41512       -1.11049
| 43>    C       -1.61372       -6.56099        0.37436
| 44>    C        0.38639       -6.79829       -0.96254
| 45>    H        1.23713       -5.00526       -1.72329
| 46>    C       -0.65258       -7.38400       -0.23659
| 47>    H        1.13528       -7.41504       -1.44531
| 48>    C       -1.55368       -5.16521        0.22788
| 49>    H       -2.42624       -7.00110        0.93909
| 50>    H       -2.32824       -4.56819        0.68583
| 51>    C       -0.73209       -8.88079       -0.15604
| 52>    H       -0.81844       -9.29588       -1.18488
| 53>    H       -1.61685       -9.21539        0.42434
| 54>    H        0.18613       -9.28760        0.31565
| 55> *
| 56>
| 57>
| 58>                          ****END OF INPUT****
 Total Charge           Charge          ....    0
 Multiplicity           Mult            ....    1
 Number of Electrons    NEL             ....  144
Dispersion correction           -0.018590300
FINAL SINGLE POINT ENERGY      -808.713036051981
Dispersion correction            ... done
Dispersion correction           -0.018738526
FINAL SINGLE POINT ENERGY      -808.726923806944
Dispersion correction            ... done
Dispersion correction           -0.018876650
FINAL SINGLE POINT ENERGY      -808.731928070979
Dispersion correction            ... done
FINAL SINGLE POINT ENERGY      -808.734390552260
FINAL SINGLE POINT ENERGY      -808.736014737210
FINAL SINGLE POINT ENERGY      -808.737249581933
FINAL SINGLE POINT ENERGY      -808.738257483325
FINAL SINGLE POINT ENERGY      -808.739244576887
FINAL SINGLE POINT ENERGY      -808.740239408936
FINAL SINGLE POINT ENERGY      -808.741212306368
FINAL SINGLE POINT ENERGY      -808.742046870984
FINAL SINGLE POINT ENERGY      -808.742722257169
FINAL SINGLE POINT ENERGY      -808.743212148407
FINAL SINGLE POINT ENERGY      -808.743525052724
FINAL SINGLE POINT ENERGY      -808.743670343602
FINAL SINGLE POINT ENERGY      -808.743737616179
FINAL SINGLE POINT ENERGY      -808.743798828944
Dispersion correction            ... done
Dispersion correction           -0.018840126
FINAL SINGLE POINT ENERGY      -808.743807156608
Dispersion correction            ... done
Dispersion correction           -0.018838176
FINAL SINGLE POINT ENERGY      -808.743807869883
Dispersion correction            ... done
                    ***********************HURRAY********************

CARTESIAN COORDINATES (ANGSTROEM)
---------------------------------
  C      0.787016    2.487137    1.058226
  C      0.083659    1.235157    0.605363
  H      0.323498    2.908250    1.954258
  H      0.757200    3.264544    0.289205
  H      1.833268    2.284702    1.288583
  C     -2.050305    2.547923    0.327994
  C     -1.266361    1.264372    0.257821
  H     -3.091231    2.384240    0.047925
  H     -1.638923    3.307234   -0.343101
  H     -2.037055    2.972355    1.335147
  C      0.804378    0.034239    0.518357
  C     -1.902763    0.092543   -0.179618
  C      0.165290   -1.108793    0.095622
  H      1.856200    0.020039    0.781012
  C     -1.185491   -1.079315   -0.253009
  H     -2.949131    0.122611   -0.461376
  N      0.628058   -2.421664   -0.040873
  N     -1.577451   -2.372931   -0.610739
  C     -0.343470   -3.102457   -0.893573
  C     -0.452421   -4.581590   -0.618898
  H     -0.064913   -2.967211   -1.963701
  C      2.017846   -2.662325   -0.343853
  H      2.206888   -3.736315   -0.343301
  H      2.648020   -2.212185    0.422614
  H      2.307924   -2.253925   -1.323224
  C     -2.658482   -2.559584   -1.547670
  H     -2.424848   -2.147514   -2.540421
  H     -3.560649   -2.077837   -1.172208
  H     -2.867115   -3.624887   -1.651489
  C     -0.236787   -5.507817   -1.628554
  C     -0.899875   -6.396471    0.898319
  C     -0.353021   -6.867659   -1.378406
  H      0.023373   -5.162197   -2.624109
  C     -0.688284   -7.333756   -0.111279
  H     -0.182717   -7.577010   -2.181611
  C     -0.784833   -5.039284    0.650009
  H     -1.162144   -6.737810    1.894125
  H     -0.955363   -4.320604    1.443329
  C     -0.818041   -8.808863    0.153642
  H     -1.582315   -9.254302   -0.486794
  H     -1.091074   -9.002536    1.191006
  H      0.121283   -9.326982   -0.051540

 Multiplicity           Mult            ....    1
 Number of Electrons    NEL             ....  144
 Basis Dimension        Dim             ....  752

ORBITAL ENERGIES
----------------

  NO   OCC          E(Eh)            E(eV)
   0   2.0000     -14.431516      -392.7015
   1   2.0000     -14.431440      -392.6995
   2   2.0000     -10.342686      -281.4388
   3   2.0000     -10.298356      -280.2325
   4   2.0000     -10.297791      -280.2171
   5   2.0000     -10.293682      -280.1053
   6   2.0000     -10.293641      -280.1042
   7   2.0000     -10.288279      -279.9583
   8   2.0000     -10.280260      -279.7401
   9   2.0000     -10.278839      -279.7014
  10   2.0000     -10.275515      -279.6110
  11   2.0000     -10.274255      -279.5767
  12   2.0000     -10.274219      -279.5757
  13   2.0000     -10.270618      -279.4777
  14   2.0000     -10.270074      -279.4629
  15   2.0000     -10.266256      -279.3590
  16   2.0000     -10.264217      -279.3036
  17   2.0000     -10.263987      -279.2973
  18   2.0000     -10.259258      -279.1686
  19   2.0000     -10.258732      -279.1543
  20   2.0000      -1.117552       -30.4101
  21   2.0000      -1.020290       -27.7635
  22   2.0000      -0.986088       -26.8328
  23   2.0000      -0.967891       -26.3377
  24   2.0000      -0.908354       -24.7176
  25   2.0000      -0.881813       -23.9953
  26   2.0000      -0.871154       -23.7053
  27   2.0000      -0.864171       -23.5153
  28   2.0000      -0.846710       -23.0402
  29   2.0000      -0.816426       -22.2161
  30   2.0000      -0.809345       -22.0234
  31   2.0000      -0.773191       -21.0396
  32   2.0000      -0.770857       -20.9761
  33   2.0000      -0.726334       -19.7645
  34   2.0000      -0.717791       -19.5321
  35   2.0000      -0.691296       -18.8111
  36   2.0000      -0.678181       -18.4542
  37   2.0000      -0.674085       -18.3428
  38   2.0000      -0.619738       -16.8639
  39   2.0000      -0.611075       -16.6282
  40   2.0000      -0.595651       -16.2085
  41   2.0000      -0.583165       -15.8687
  42   2.0000      -0.565756       -15.3950
  43   2.0000      -0.557805       -15.1786
  44   2.0000      -0.547038       -14.8856
  45   2.0000      -0.544655       -14.8208
  46   2.0000      -0.533517       -14.5177
  47   2.0000      -0.528863       -14.3911
  48   2.0000      -0.522716       -14.2238
  49   2.0000      -0.518481       -14.1086
  50   2.0000      -0.516469       -14.0538
  51   2.0000      -0.514421       -13.9981
  52   2.0000      -0.513843       -13.9824
  53   2.0000      -0.492839       -13.4108
  54   2.0000      -0.486885       -13.2488
  55   2.0000      -0.482944       -13.1416
  56   2.0000      -0.473320       -12.8797
  57   2.0000      -0.471087       -12.8189
  58   2.0000      -0.467590       -12.7238
  59   2.0000      -0.466619       -12.6974
  60   2.0000      -0.459663       -12.5081
  61   2.0000      -0.458385       -12.4733
  62   2.0000      -0.432116       -11.7585
  63   2.0000      -0.431918       -11.7531
  64   2.0000      -0.428218       -11.6524
  65   2.0000      -0.423077       -11.5125
  66   2.0000      -0.379144       -10.3170
  67   2.0000      -0.365740        -9.9523
  68   2.0000      -0.343630        -9.3507
  69   2.0000      -0.329640        -8.9700
  70   2.0000      -0.305254        -8.3064
  71   2.0000      -0.254826        -6.9342
  72   0.0000       0.054967         1.4957
  73   0.0000       0.065409         1.7799
  74   0.0000       0.077168         2.0998
  75   0.0000       0.091096         2.4789
  76   0.0000       0.120713         3.2848

MULLIKEN ATOMIC CHARGES
-----------------------
   0 C :   -0.381985
   1 C :    0.067288
   2 H :    0.132108
   3 H :    0.131140
   4 H :    0.130961
   5 C :   -0.399421
   6 C :    0.069945
   7 H :    0.132908
   8 H :    0.137582
   9 H :    0.135721
  10 C :   -0.352455
  11 C :   -0.357504
  12 C :    0.087005
  13 H :    0.138215
  14 C :    0.080230
  15 H :    0.136941
  16 N :   -0.116235
  17 N :   -0.111110
  18 C :    0.128475
  19 C :    0.060843
  20 H :    0.095737
  21 C :   -0.319328
  22 H :    0.154892
  23 H :    0.149477
  24 H :    0.119896
  25 C :   -0.317641
  26 H :    0.119354
  27 H :    0.146789
  28 H :    0.153985
  29 C :   -0.152092
  30 C :   -0.261470
  31 C :   -0.234268
  32 H :    0.135114
  33 C :    0.157242
  34 H :    0.139845
  35 C :   -0.245897
  36 H :    0.136868
  37 H :    0.140330
  38 C :   -0.390602
  39 H :    0.142653
  40 H :    0.134003
  41 H :    0.144460
Sum of atomic charges:   -0.0000000

LOEWDIN ATOMIC CHARGES
----------------------
   0 C :   -0.258520
   1 C :   -0.164506
   2 H :    0.128310
   3 H :    0.127726
   4 H :    0.127107
   5 C :   -0.259638
   6 C :   -0.164525
   7 H :    0.127170
   8 H :    0.128792
   9 H :    0.128681
  10 C :   -0.115281
  11 C :   -0.115614
  12 C :   -0.174800
  13 H :    0.150993
  14 C :   -0.175232
  15 H :    0.150931
  16 N :    0.171391
  17 N :    0.172311
  18 C :   -0.221948
  19 C :   -0.147059
  20 H :    0.140029
  21 C :   -0.298246
  22 H :    0.125641
  23 H :    0.124152
  24 H :    0.110822
  25 C :   -0.297364
  26 H :    0.110923
  27 H :    0.123791
  28 H :    0.125756
  29 C :   -0.116190
  30 C :   -0.121008
  31 C :   -0.120427
  32 H :    0.152572
  33 C :   -0.172356
  34 H :    0.152584
  35 C :   -0.101066
  36 H :    0.150788
  37 H :    0.155543
  38 C :   -0.256526
  39 H :    0.132689
  40 H :    0.128742
  41 H :    0.132862

  Mayer bond orders larger than 0.100000
B(  0-C ,  1-C ) :   0.9181 B(  0-C ,  2-H ) :   0.9790 B(  0-C ,  3-H ) :   0.9765
B(  0-C ,  4-H ) :   0.9840 B(  1-C ,  6-C ) :   1.4026 B(  1-C , 10-C ) :   1.4123
B(  5-C ,  6-C ) :   0.9093 B(  5-C ,  7-H ) :   0.9851 B(  5-C ,  8-H ) :   0.9764
B(  5-C ,  9-H ) :   0.9786 B(  6-C , 11-C ) :   1.4075 B( 10-C , 12-C ) :   1.4164
B( 10-C , 13-H ) :   0.9369 B( 11-C , 14-C ) :   1.4086 B( 11-C , 15-H ) :   0.9419
B( 12-C , 14-C ) :   1.2688 B( 12-C , 16-N ) :   1.1247 B( 14-C , 17-N ) :   1.1299
B( 16-N , 18-C ) :   0.9896 B( 16-N , 21-C ) :   0.9514 B( 17-N , 18-C ) :   0.9901
B( 17-N , 25-C ) :   0.9508 B( 18-C , 19-C ) :   0.8695 B( 18-C , 20-H ) :   0.9859
B( 19-C , 29-C ) :   1.3115 B( 19-C , 35-C ) :   1.3560 B( 21-C , 22-H ) :   0.9683
B( 21-C , 23-H ) :   0.9668 B( 21-C , 24-H ) :   0.9624 B( 25-C , 26-H ) :   0.9627
B( 25-C , 27-H ) :   0.9689 B( 25-C , 28-H ) :   0.9687 B( 29-C , 31-C ) :   1.4228
B( 29-C , 32-H ) :   0.9906 B( 30-C , 33-C ) :   1.3682 B( 30-C , 35-C ) :   1.4617
B( 30-C , 36-H ) :   0.9776 B( 31-C , 33-C ) :   1.3504 B( 31-C , 34-H ) :   1.0002
B( 33-C , 38-C ) :   0.9246 B( 35-C , 37-H ) :   0.9942 B( 38-C , 39-H ) :   0.9681
B( 38-C , 40-H ) :   0.9922 B( 38-C , 41-H ) :   0.9687

Dispersion correction           -0.018837616
FINAL SINGLE POINT ENERGY      -808.743810012109

DIPOLE MOMENT
-------------
                                X             Y             Z
Electronic contribution:     -0.09853      -4.27157       0.35958
Nuclear contribution   :      0.21774       3.60219      -0.93756
                        -----------------------------------------
Total Dipole Moment    :      0.11921      -0.66938      -0.57798
                        -----------------------------------------
Magnitude (a.u.)       :      0.89238
Magnitude (Debye)      :      2.26825

Rotational constants in cm-1:     0.032171     0.005425     0.005048
Rotational constants in MHz :   964.468190   162.632201   151.325765

                             ****ORCA TERMINATED NORMALLY****
TOTAL RUN TIME: 0 days 22 hours 48 minutes 41 seconds 226 msec
