                         Program Version 4.2.1 -  RELEASE  -
                         Program Version 4.2.1 -  RELEASE  -
|  1> # avogadro generated ORCA input file
|  2> # Basic Mode
|  3> #
|  4> ! wB97X-D3 OPT def2-TZVP def2/J CPCM
|  5> %cpcm
|  6>   epsilon 3
|  7> end
|  8> %pal
|  9>  nprocs 4
| 10> end
| 11>
| 12> * xyz 0 1
| 13>    N        4.48546        5.42491        0.23650
| 14>    C        3.05434        5.31058        0.34892
| 15>    N        2.49416        4.14263        0.34991
| 16>    C        5.32557        4.22810        0.29071
| 17>    C        4.57011        3.02667        0.86625
| 18>    C        3.23456        2.91404        0.16007
| 19>    H        3.40257        2.74833       -0.92673
| 20>    H        2.64644        2.06133        0.55948
| 21>    H        6.19773        4.39678        0.96023
| 22>    H        5.70355        4.01532       -0.73298
| 23>    H        5.17387        2.10010        0.75990
| 24>    H        4.37289        3.19919        1.94793
| 25>    C        5.14574        6.70581        0.03416
| 26>    C        5.02898        7.61099        1.26664
| 27>    H        4.77779        7.20949       -0.88561
| 28>    H        6.23522        6.52801       -0.11172
| 29>    C        3.67463        8.30451        1.43160
| 30>    H        5.76961        8.43183        1.14276
| 31>    H        5.30608        7.04367        2.18186
| 32>    C        2.45936        7.39797        1.64625
| 33>    H        3.49063        8.94411        0.53980
| 34>    H        3.75060        8.97865        2.31272
| 35>    C        2.14923        6.51137        0.44071
| 36>    H        1.59471        8.08552        1.77704
| 37>    H        2.55059        6.79062        2.57323
| 38>    H        2.18675        7.11035       -0.49456
| 39>    H        1.10467        6.14286        0.55303
| 40> *
| 41>
| 42>
| 43>                          ****END OF INPUT****
 Total Charge           Charge          ....    0
 Multiplicity           Mult            ....    1
 Number of Electrons    NEL             ....   84
Dispersion correction           -0.010479735
FINAL SINGLE POINT ENERGY      -462.132063657930
Dispersion correction            ... done
Dispersion correction           -0.010512566
FINAL SINGLE POINT ENERGY      -462.144194331448
Dispersion correction            ... done
Dispersion correction           -0.010535294
FINAL SINGLE POINT ENERGY      -462.146843156873
Dispersion correction            ... done
FINAL SINGLE POINT ENERGY      -462.147338556705
FINAL SINGLE POINT ENERGY      -462.147536340249
FINAL SINGLE POINT ENERGY      -462.147585096511
FINAL SINGLE POINT ENERGY      -462.147638381108
FINAL SINGLE POINT ENERGY      -462.147647115663
Dispersion correction            ... done
Dispersion correction           -0.010634014
FINAL SINGLE POINT ENERGY      -462.147653170373
Dispersion correction            ... done
Dispersion correction           -0.010639916
FINAL SINGLE POINT ENERGY      -462.147656744559
Dispersion correction            ... done
                    ***********************HURRAY********************

CARTESIAN COORDINATES (ANGSTROEM)
---------------------------------
  N      4.409620    5.421919    0.148210
  C      3.055151    5.270569    0.243705
  N      2.429929    4.149681    0.298545
  C      5.300333    4.277037    0.285100
  C      4.576073    3.110955    0.926741
  C      3.228161    2.937430    0.244763
  H      3.382086    2.642499   -0.801961
  H      2.661867    2.130224    0.714352
  H      6.155558    4.577235    0.896840
  H      5.690310    3.987721   -0.698316
  H      5.183892    2.207778    0.848582
  H      4.416083    3.314968    1.989780
  C      5.048242    6.721158    0.007092
  C      5.036854    7.571402    1.276184
  H      4.593309    7.275689   -0.818852
  H      6.078777    6.525083   -0.292130
  C      3.705844    8.271799    1.527583
  H      5.822744    8.328136    1.194251
  H      5.299885    6.933058    2.126468
  C      2.491433    7.350466    1.600042
  H      3.540751    9.000496    0.724571
  H      3.772736    8.847995    2.454632
  C      2.229361    6.529801    0.330093
  H      1.608878    7.963124    1.799163
  H      2.587449    6.665245    2.449552
  H      2.387729    7.152662   -0.556360
  H      1.192785    6.199609    0.309470

 Multiplicity           Mult            ....    1
 Number of Electrons    NEL             ....   84
 Basis Dimension        Dim             ....  437

ORBITAL ENERGIES
----------------

  NO   OCC          E(Eh)            E(eV)
   0   2.0000     -14.433310      -392.7503
   1   2.0000     -14.369125      -391.0038
   2   2.0000     -10.331655      -281.1386
   3   2.0000     -10.302574      -280.3473
   4   2.0000     -10.301605      -280.3209
   5   2.0000     -10.279425      -279.7174
   6   2.0000     -10.267173      -279.3840
   7   2.0000     -10.266505      -279.3658
   8   2.0000     -10.265645      -279.3424
   9   2.0000     -10.265003      -279.3249
  10   2.0000     -10.264371      -279.3077
  11   2.0000      -1.087428       -29.5904
  12   2.0000      -0.991552       -26.9815
  13   2.0000      -0.931286       -25.3416
  14   2.0000      -0.894820       -24.3493
  15   2.0000      -0.868781       -23.6407
  16   2.0000      -0.799528       -21.7563
  17   2.0000      -0.775888       -21.1130
  18   2.0000      -0.759841       -20.6763
  19   2.0000      -0.698930       -19.0189
  20   2.0000      -0.679811       -18.4986
  21   2.0000      -0.621208       -16.9039
  22   2.0000      -0.607279       -16.5249
  23   2.0000      -0.592221       -16.1151
  24   2.0000      -0.559822       -15.2335
  25   2.0000      -0.550682       -14.9848
  26   2.0000      -0.538090       -14.6422
  27   2.0000      -0.531069       -14.4511
  28   2.0000      -0.517797       -14.0900
  29   2.0000      -0.503795       -13.7089
  30   2.0000      -0.495790       -13.4911
  31   2.0000      -0.480404       -13.0724
  32   2.0000      -0.471493       -12.8300
  33   2.0000      -0.454808       -12.3760
  34   2.0000      -0.451783       -12.2936
  35   2.0000      -0.423416       -11.5217
  36   2.0000      -0.418391       -11.3850
  37   2.0000      -0.413720       -11.2579
  38   2.0000      -0.407667       -11.0932
  39   2.0000      -0.384812       -10.4713
  40   2.0000      -0.329428        -8.9642
  41   2.0000      -0.293103        -7.9757
  42   0.0000       0.107589         2.9277
  43   0.0000       0.115319         3.1380
  44   0.0000       0.132927         3.6171
  45   0.0000       0.140707         3.8288
  46   0.0000       0.145707         3.9649

MULLIKEN ATOMIC CHARGES
-----------------------
   0 N :   -0.082898
   1 C :    0.050894
   2 N :   -0.386854
   3 C :   -0.166203
   4 C :   -0.217991
   5 C :   -0.092855
   6 H :    0.097090
   7 H :    0.115527
   8 H :    0.133613
   9 H :    0.113194
  10 H :    0.122366
  11 H :    0.112011
  12 C :   -0.221407
  13 C :   -0.184071
  14 H :    0.139447
  15 H :    0.148428
  16 C :   -0.249130
  17 H :    0.114878
  18 H :    0.109924
  19 C :   -0.190208
  20 H :    0.111772
  21 H :    0.120710
  22 C :   -0.188693
  23 H :    0.123742
  24 H :    0.108849
  25 H :    0.131625
  26 H :    0.126240
Sum of atomic charges:   -0.0000000

LOEWDIN ATOMIC CHARGES
----------------------
   0 N :    0.192294
   1 C :   -0.330415
   2 N :    0.017796
   3 C :   -0.257556
   4 C :   -0.267043
   5 C :   -0.313757
   6 H :    0.130128
   7 H :    0.127940
   8 H :    0.137852
   9 H :    0.131812
  10 H :    0.141599
  11 H :    0.140977
  12 C :   -0.254120
  13 C :   -0.265175
  14 H :    0.138556
  15 H :    0.142922
  16 C :   -0.274499
  17 H :    0.139886
  18 H :    0.139856
  19 C :   -0.256125
  20 H :    0.138923
  21 H :    0.138631
  22 C :   -0.216394
  23 H :    0.140683
  24 H :    0.140705
  25 H :    0.145021
  26 H :    0.149504

  Mayer bond orders larger than 0.100000
B(  0-N ,  1-C ) :   1.2332 B(  0-N ,  3-C ) :   0.9272 B(  0-N , 12-C ) :   0.8950
B(  1-C ,  2-N ) :   1.9634 B(  1-C , 22-C ) :   0.9514 B(  2-N ,  5-C ) :   0.9914
B(  3-C ,  4-C ) :   1.0004 B(  3-C ,  8-H ) :   0.9605 B(  3-C ,  9-H ) :   0.9599
B(  4-C ,  5-C ) :   0.9730 B(  4-C , 10-H ) :   0.9679 B(  4-C , 11-H ) :   0.9716
B(  5-C ,  6-H ) :   0.9688 B(  5-C ,  7-H ) :   0.9731 B( 12-C , 13-C ) :   0.9532
B( 12-C , 14-H ) :   0.9725 B( 12-C , 15-H ) :   0.9753 B( 13-C , 16-C ) :   0.9904
B( 13-C , 17-H ) :   0.9718 B( 13-C , 18-H ) :   0.9671 B( 16-C , 19-C ) :   0.9792
B( 16-C , 20-H ) :   0.9788 B( 16-C , 21-H ) :   0.9746 B( 19-C , 22-C ) :   0.9220
B( 19-C , 23-H ) :   0.9715 B( 19-C , 24-H ) :   0.9661 B( 22-C , 25-H ) :   0.9768
B( 22-C , 26-H ) :   0.9750

Dispersion correction           -0.010643058
FINAL SINGLE POINT ENERGY      -462.147658547292

DIPOLE MOMENT
-------------
                                X             Y             Z
Electronic contribution:     -1.97544      -3.00259      -2.06565
Nuclear contribution   :      3.48636       3.77921       2.10093
                        -----------------------------------------
Total Dipole Moment    :      1.51092       0.77662       0.03528
                        -----------------------------------------
Magnitude (a.u.)       :      1.69919
Magnitude (Debye)      :      4.31901

Rotational constants in cm-1:     0.066826     0.030296     0.023657
Rotational constants in MHz :  2003.397889   908.239367   709.221323

                             ****ORCA TERMINATED NORMALLY****
TOTAL RUN TIME: 0 days 2 hours 57 minutes 23 seconds 76 msec
