                         Program Version 4.2.1 -  RELEASE  -
|  1> # avogadro generated ORCA input file
|  2> # Basic Mode
|  3> #
|  4> ! wB97X-D3 OPT def2-TZVP def2/J CPCM
|  5> %cpcm
|  6>   epsilon 3
|  7> end
|  8> %pal
|  9>  nprocs 4
| 10> end
| 11>
| 12> * xyz 0 1
| 13>    N      -10.72019        6.50253        0.00074
| 14>    N       -8.95433        2.82477        0.00174
| 15>    C       -9.67304        6.00316       -0.00043
| 16>    C       -8.62865        3.93996       -0.00058
| 17>    C       -8.37219        5.36519       -0.00032
| 18>    C       -7.14421        6.02025        0.00164
| 19>    C       -7.06281        7.45132        0.00177
| 20>    C       -5.92197        5.28973        0.00095
| 21>    C       -5.81266        8.10703       -0.00044
| 22>    C       -4.66280        5.94975       -0.00019
| 23>    C       -4.59378        7.38041       -0.00122
| 24>    C       -3.38687        8.05419       -0.00184
| 25>    C       -3.19381        9.48254       -0.00060
| 26>    C       -2.06727        7.46166       -0.00067
| 27>    N       -2.94035       10.61361        0.00041
| 28>    N       -0.99431        7.02028        0.00027
| 29>    F       -5.78835        9.47172       -0.00024
| 30>    F       -5.95778        3.92299        0.00062
| 31>    C       -8.25968        8.28797        0.00052
| 32>    C       -3.45850        5.11189       -0.00008
| 33>    N       -9.16375        9.01759       -0.00054
| 34>    N       -2.50593        4.44376       -0.00002
| 35> *
| 36>
| 37>
| 38>                          ****END OF INPUT****
 Total Charge           Charge          ....    0
 Multiplicity           Mult            ....    1
 Number of Electrons    NEL             ....  144
Dispersion correction           -0.010795217
FINAL SINGLE POINT ENERGY     -1061.533201675287
Dispersion correction            ... done
Dispersion correction           -0.011058425
FINAL SINGLE POINT ENERGY     -1061.556986115982
Dispersion correction            ... done
Dispersion correction           -0.011088278
FINAL SINGLE POINT ENERGY     -1061.562209442706
Dispersion correction            ... done
FINAL SINGLE POINT ENERGY     -1061.563382645539
FINAL SINGLE POINT ENERGY     -1061.563577111174
FINAL SINGLE POINT ENERGY     -1061.563621694041
FINAL SINGLE POINT ENERGY     -1061.563646568358
Dispersion correction            ... done
Dispersion correction           -0.011066766
FINAL SINGLE POINT ENERGY     -1061.563656656605
Dispersion correction            ... done
Dispersion correction           -0.011067011
FINAL SINGLE POINT ENERGY     -1061.563658841437
Dispersion correction            ... done
                    ***********************HURRAY********************

CARTESIAN COORDINATES (ANGSTROEM)
---------------------------------
  N    -10.729539    6.380659    0.008753
  N     -8.687187    2.814720   -0.002118
  C     -9.650298    5.991170    0.003973
  C     -8.479536    3.943113   -0.002422
  C     -8.358475    5.371877   -0.000478
  C     -7.181232    6.050234   -0.001458
  C     -7.057360    7.500964   -0.000968
  C     -5.908262    5.341935   -0.000795
  C     -5.843055    8.087175    0.000656
  C     -4.693980    5.928159    0.000707
  C     -4.570139    7.378862    0.001130
  C     -3.392862    8.057162    0.000336
  C     -3.271798    9.485913    0.002885
  C     -2.101005    7.437928   -0.004645
  N     -3.063838   10.614251    0.004707
  N     -1.021080    7.050328   -0.009145
  F     -5.787463    9.396610    0.000423
  F     -5.963827    4.032493   -0.000598
  C     -8.176944    8.391159   -0.004191
  C     -3.574223    5.038193    0.004271
  N     -9.014718    9.174099   -0.006621
  N     -2.736410    4.255297    0.007088

 Multiplicity           Mult            ....    1
 Number of Electrons    NEL             ....  144
 Basis Dimension        Dim             ....  682

ORBITAL ENERGIES
----------------

  NO   OCC          E(Eh)            E(eV)
   0   2.0000     -24.882913      -677.0985
   1   2.0000     -24.882900      -677.0981
   2   2.0000     -14.473078      -393.8325
   3   2.0000     -14.473040      -393.8314
   4   2.0000     -14.470078      -393.7508
   5   2.0000     -14.470076      -393.7508
   6   2.0000     -14.468625      -393.7113
   7   2.0000     -14.468598      -393.7106
   8   2.0000     -10.473589      -285.0008
   9   2.0000     -10.473567      -285.0003
  10   2.0000     -10.428751      -283.7808
  11   2.0000     -10.428745      -283.7806
  12   2.0000     -10.420503      -283.5563
  13   2.0000     -10.420461      -283.5552
  14   2.0000     -10.404130      -283.1108
  15   2.0000     -10.404106      -283.1101
  16   2.0000     -10.369434      -282.1667
  17   2.0000     -10.369355      -282.1645
  18   2.0000     -10.369100      -282.1576
  19   2.0000     -10.369097      -282.1575
  20   2.0000     -10.365175      -282.0507
  21   2.0000     -10.365112      -282.0490
  22   2.0000      -1.443774       -39.2871
  23   2.0000      -1.443541       -39.2807
  24   2.0000      -1.111540       -30.2465
  25   2.0000      -1.096103       -29.8265
  26   2.0000      -1.083303       -29.4782
  27   2.0000      -1.077229       -29.3129
  28   2.0000      -1.072082       -29.1728
  29   2.0000      -1.070896       -29.1406
  30   2.0000      -1.066363       -29.0172
  31   2.0000      -1.036199       -28.1964
  32   2.0000      -0.989612       -26.9287
  33   2.0000      -0.987812       -26.8797
  34   2.0000      -0.910686       -24.7810
  35   2.0000      -0.881326       -23.9821
  36   2.0000      -0.833592       -22.6832
  37   2.0000      -0.781069       -21.2540
  38   2.0000      -0.777209       -21.1489
  39   2.0000      -0.764665       -20.8076
  40   2.0000      -0.741286       -20.1714
  41   2.0000      -0.711446       -19.3594
  42   2.0000      -0.690397       -18.7867
  43   2.0000      -0.685490       -18.6531
  44   2.0000      -0.678182       -18.4543
  45   2.0000      -0.672498       -18.2996
  46   2.0000      -0.663160       -18.0455
  47   2.0000      -0.625950       -17.0330
  48   2.0000      -0.585500       -15.9323
  49   2.0000      -0.578318       -15.7368
  50   2.0000      -0.578067       -15.7300
  51   2.0000      -0.576163       -15.6782
  52   2.0000      -0.538014       -14.6401
  53   2.0000      -0.525767       -14.3068
  54   2.0000      -0.523891       -14.2558
  55   2.0000      -0.523576       -14.2472
  56   2.0000      -0.516892       -14.0654
  57   2.0000      -0.516774       -14.0621
  58   2.0000      -0.514699       -14.0057
  59   2.0000      -0.513748       -13.9798
  60   2.0000      -0.510957       -13.9039
  61   2.0000      -0.510416       -13.8891
  62   2.0000      -0.491737       -13.3808
  63   2.0000      -0.490835       -13.3563
  64   2.0000      -0.484703       -13.1894
  65   2.0000      -0.482994       -13.1429
  66   2.0000      -0.480357       -13.0712
  67   2.0000      -0.465808       -12.6753
  68   2.0000      -0.463298       -12.6070
  69   2.0000      -0.454058       -12.3555
  70   2.0000      -0.414308       -11.2739
  71   2.0000      -0.364141        -9.9088
  72   0.0000      -0.136927        -3.7260
  73   0.0000      -0.049941        -1.3590
  74   0.0000      -0.003162        -0.0860
  75   0.0000       0.019807         0.5390
  76   0.0000       0.022597         0.6149

MULLIKEN ATOMIC CHARGES
-----------------------
   0 N :   -0.006796
   1 N :   -0.016161
   2 C :   -0.192762
   3 C :   -0.227886
   4 C :    0.450155
   5 C :   -0.086306
   6 C :    0.170122
   7 C :    0.305704
   8 C :    0.305787
   9 C :    0.170484
  10 C :   -0.086775
  11 C :    0.450455
  12 C :   -0.227893
  13 C :   -0.193445
  14 N :   -0.016171
  15 N :   -0.006049
  16 F :   -0.140244
  17 F :   -0.140245
  18 C :   -0.258276
  19 C :   -0.258861
  20 N :    0.002225
  21 N :    0.002938
Sum of atomic charges:   -0.0000000

LOEWDIN ATOMIC CHARGES
----------------------
   0 N :    0.117329
   1 N :    0.100721
   2 C :   -0.122194
   3 C :   -0.129169
   4 C :   -0.066195
   5 C :    0.008945
   6 C :   -0.059765
   7 C :   -0.137916
   8 C :   -0.137899
   9 C :   -0.059796
  10 C :    0.008887
  11 C :   -0.066156
  12 C :   -0.129148
  13 C :   -0.122276
  14 N :    0.100733
  15 N :    0.117578
  16 F :    0.315296
  17 F :    0.315271
  18 C :   -0.133893
  19 C :   -0.133944
  20 N :    0.106682
  21 N :    0.106910

  Mayer bond orders larger than 0.100000
B(  0-N ,  2-C ) :   2.9500 B(  1-N ,  3-C ) :   2.9659 B(  2-C ,  4-C ) :   0.9809
B(  3-C ,  4-C ) :   0.9314 B(  4-C ,  5-C ) :   1.6080 B(  5-C ,  6-C ) :   1.0618
B(  5-C ,  7-C ) :   1.1158 B(  6-C ,  8-C ) :   1.6516 B(  6-C , 18-C ) :   0.9599
B(  7-C ,  9-C ) :   1.6517 B(  7-C , 17-F ) :   1.0966 B(  8-C , 10-C ) :   1.1158
B(  8-C , 16-F ) :   1.0966 B(  9-C , 10-C ) :   1.0618 B(  9-C , 19-C ) :   0.9597
B( 10-C , 11-C ) :   1.6081 B( 11-C , 12-C ) :   0.9314 B( 11-C , 13-C ) :   0.9807
B( 12-C , 14-N ) :   2.9658 B( 13-C , 15-N ) :   2.9509 B( 18-C , 20-N ) :   2.9772
B( 19-C , 21-N ) :   2.9780

Dispersion correction           -0.011066784
FINAL SINGLE POINT ENERGY     -1061.563659078015

DIPOLE MOMENT
-------------
                                X             Y             Z
Electronic contribution:      0.00249      -0.00222      -0.00226
Nuclear contribution   :      0.00009       0.00020       0.00031
                        -----------------------------------------
Total Dipole Moment    :      0.00258      -0.00202      -0.00195
                        -----------------------------------------
Magnitude (a.u.)       :      0.00381
Magnitude (Debye)      :      0.00969

Rotational constants in cm-1:     0.015331     0.007791     0.005166
Rotational constants in MHz :   459.607581   233.553635   154.860586

                             ****ORCA TERMINATED NORMALLY****
TOTAL RUN TIME: 0 days 4 hours 49 minutes 20 seconds 624 msec
