                         Program Version 4.2.1 -  RELEASE  -
|  1> # avogadro generated ORCA input file
|  2> # Basic Mode
|  3> #
|  4> ! wB97X-D3 OPT def2-TZVP def2/J CPCM
|  5> %cpcm
|  6>   epsilon 3
|  7> end
|  8> %pal
|  9>  nprocs 4
| 10> end
| 11>
| 12> * xyz 0 1
| 13>    N        5.06909        5.31401        0.59676
| 14>    C        3.68590        5.56525        0.72198
| 15>    N        2.79631        4.65482        0.50541
| 16>    C        5.53570        4.06529        0.03709
| 17>    C        4.62142        2.95788        0.56337
| 18>    C        3.15767        3.27743        0.19274
| 19>    H        3.00397        3.12654       -0.89726
| 20>    H        2.48887        2.57677        0.73550
| 21>    H        6.58563        3.87606        0.34693
| 22>    H        5.48393        4.10800       -1.07284
| 23>    H        4.91562        1.96054        0.17256
| 24>    H        4.71250        2.94107        1.67230
| 25>    C        5.73265        6.58244        0.45091
| 26>    C        4.81456        7.52284        1.23446
| 27>    H        5.73355        6.86149       -0.62653
| 28>    H        6.77001        6.57832        0.84840
| 29>    C        3.40026        7.01045        0.93212
| 30>    H        4.97418        8.61046        1.07886
| 31>    H        5.00759        7.29931        2.30957
| 32>    H        3.00386        7.41437       -0.02407
| 33>    H        2.70963        7.23467        1.77287
| 34> *
| 35>
| 36>
| 37>                          ****END OF INPUT****
 Total Charge           Charge          ....    0
 Multiplicity           Mult            ....    1
 Number of Electrons    NEL             ....   68
Dispersion correction           -0.006702137
FINAL SINGLE POINT ENERGY      -383.502634450140
Dispersion correction            ... done
Dispersion correction           -0.006701812
FINAL SINGLE POINT ENERGY      -383.511925529153
Dispersion correction            ... done
Dispersion correction           -0.006703782
FINAL SINGLE POINT ENERGY      -383.514074452506
Dispersion correction            ... done
FINAL SINGLE POINT ENERGY      -383.514698843935
FINAL SINGLE POINT ENERGY      -383.514949560973
FINAL SINGLE POINT ENERGY      -383.515065012072
FINAL SINGLE POINT ENERGY      -383.515132319613
FINAL SINGLE POINT ENERGY      -383.515170383931
FINAL SINGLE POINT ENERGY      -383.515190261557
Dispersion correction            ... done
Dispersion correction           -0.006708664
FINAL SINGLE POINT ENERGY      -383.515198146710
Dispersion correction            ... done
Dispersion correction           -0.006709237
FINAL SINGLE POINT ENERGY      -383.515202462032
Dispersion correction            ... done
                    ***********************HURRAY********************

CARTESIAN COORDINATES (ANGSTROEM)
---------------------------------
  N      5.000063    5.333721    0.508470
  C      3.657902    5.514074    0.681781
  N      2.736063    4.635834    0.594173
  C      5.525239    4.074226    0.040540
  C      4.608672    2.968747    0.545034
  C      3.156173    3.292258    0.204902
  H      2.996202    3.173600   -0.873950
  H      2.493789    2.571697    0.690481
  H      6.541031    3.947973    0.423771
  H      5.583278    4.058688   -1.056309
  H      4.900160    2.011184    0.110065
  H      4.718632    2.885197    1.630005
  C      5.738021    6.577929    0.454963
  C      4.823478    7.541679    1.216677
  H      5.895397    6.901374   -0.583077
  H      6.718895    6.464587    0.921924
  C      3.420297    6.976855    0.972880
  H      4.935593    8.571417    0.880812
  H      5.062763    7.503341    2.280733
  H      2.951715    7.427717    0.094258
  H      2.739540    7.105915    1.812996

 Multiplicity           Mult            ....    1
 Number of Electrons    NEL             ....   68
 Basis Dimension        Dim             ....  351

ORBITAL ENERGIES
----------------

  NO   OCC          E(Eh)            E(eV)
   0   2.0000     -14.433051      -392.7433
   1   2.0000     -14.372037      -391.0830
   2   2.0000     -10.330961      -281.1197
   3   2.0000     -10.304069      -280.3880
   4   2.0000     -10.302872      -280.3554
   5   2.0000     -10.282846      -279.8105
   6   2.0000     -10.273748      -279.5629
   7   2.0000     -10.271223      -279.4942
   8   2.0000     -10.266590      -279.3681
   9   2.0000      -1.097924       -29.8760
  10   2.0000      -0.994277       -27.0556
  11   2.0000      -0.930376       -25.3168
  12   2.0000      -0.865668       -23.5560
  13   2.0000      -0.827218       -22.5097
  14   2.0000      -0.772195       -21.0125
  15   2.0000      -0.719143       -19.5689
  16   2.0000      -0.711778       -19.3685
  17   2.0000      -0.625473       -17.0200
  18   2.0000      -0.608062       -16.5462
  19   2.0000      -0.580378       -15.7929
  20   2.0000      -0.565377       -15.3847
  21   2.0000      -0.548962       -14.9380
  22   2.0000      -0.527544       -14.3552
  23   2.0000      -0.511285       -13.9128
  24   2.0000      -0.498484       -13.5644
  25   2.0000      -0.484009       -13.1705
  26   2.0000      -0.470234       -12.7957
  27   2.0000      -0.457805       -12.4575
  28   2.0000      -0.446049       -12.1376
  29   2.0000      -0.431294       -11.7361
  30   2.0000      -0.424551       -11.5526
  31   2.0000      -0.387474       -10.5437
  32   2.0000      -0.332590        -9.0502
  33   2.0000      -0.296357        -8.0643
  34   0.0000       0.104125         2.8334
  35   0.0000       0.120575         3.2810
  36   0.0000       0.138046         3.7564
  37   0.0000       0.150287         4.0895
  38   0.0000       0.155235         4.2242

MULLIKEN ATOMIC CHARGES
-----------------------
   0 N :   -0.117190
   1 C :    0.049921
   2 N :   -0.384018
   3 C :   -0.144278
   4 C :   -0.213272
   5 C :   -0.078308
   6 H :    0.100005
   7 H :    0.113952
   8 H :    0.124975
   9 H :    0.110056
  10 H :    0.119418
  11 H :    0.110895
  12 C :   -0.124708
  13 C :   -0.227372
  14 H :    0.099637
  15 H :    0.121436
  16 C :   -0.161961
  17 H :    0.127050
  18 H :    0.114170
  19 H :    0.127846
  20 H :    0.131745
Sum of atomic charges:   -0.0000000

LOEWDIN ATOMIC CHARGES
----------------------
   0 N :    0.192694
   1 C :   -0.329026
   2 N :    0.013665
   3 C :   -0.257519
   4 C :   -0.262055
   5 C :   -0.307811
   6 H :    0.129587
   7 H :    0.129191
   8 H :    0.136638
   9 H :    0.131472
  10 H :    0.140647
  11 H :    0.140853
  12 C :   -0.245785
  13 C :   -0.240720
  14 H :    0.127021
  15 H :    0.131321
  16 C :   -0.202694
  17 H :    0.135987
  18 H :    0.139920
  19 H :    0.150884
  20 H :    0.145731

  Mayer bond orders larger than 0.100000
B(  0-N ,  1-C ) :   1.2030 B(  0-N ,  3-C ) :   0.9514 B(  0-N , 12-C ) :   0.9442
B(  1-C ,  2-N ) :   1.9848 B(  1-C , 16-C ) :   0.9622 B(  2-N ,  5-C ) :   0.9805
B(  3-C ,  4-C ) :   0.9867 B(  3-C ,  8-H ) :   0.9600 B(  3-C ,  9-H ) :   0.9645
B(  4-C ,  5-C ) :   0.9888 B(  4-C , 10-H ) :   0.9664 B(  4-C , 11-H ) :   0.9730
B(  5-C ,  6-H ) :   0.9719 B(  5-C ,  7-H ) :   0.9690 B( 12-C , 13-C ) :   1.0053
B( 12-C , 14-H ) :   0.9545 B( 12-C , 15-H ) :   0.9653 B( 13-C , 16-C ) :   1.0077
B( 13-C , 17-H ) :   0.9780 B( 13-C , 18-H ) :   0.9657 B( 16-C , 19-H ) :   0.9548
B( 16-C , 20-H ) :   0.9668

Dispersion correction           -0.006709785
FINAL SINGLE POINT ENERGY      -383.515204449103

DIPOLE MOMENT
-------------
                                X             Y             Z
Electronic contribution:     -1.95253       0.20718       0.29064
Nuclear contribution   :      3.52235       0.13845      -0.52127
                        -----------------------------------------
Total Dipole Moment    :      1.56982       0.34563      -0.23063
                        -----------------------------------------
Magnitude (a.u.)       :      1.62388
Magnitude (Debye)      :      4.12758

Rotational constants in cm-1:     0.109325     0.049504     0.036233
Rotational constants in MHz :  3277.481119  1484.088975  1086.247419

                             ****ORCA TERMINATED NORMALLY****
TOTAL RUN TIME: 0 days 1 hours 47 minutes 26 seconds 283 msec
