                         Program Version 4.2.1 -  RELEASE  -
|  1> # avogadro generated ORCA input file
|  2> # Basic Mode
|  3> #
|  4> ! wB97X-D3 OPT def2-TZVP def2/J CPCM
|  5> %cpcm
|  6>   epsilon 3
|  7> end
|  8> %pal
|  9>  nprocs 4
| 10> end
| 11>
| 12> * xyz 0 1
| 13>    C        0.53925        1.74892        0.02139
| 14>    N        1.79177        1.00473        0.02703
| 15>    H        0.47360        2.38932        0.92648
| 16>    H       -0.34354        1.07239        0.02696
| 17>    H        0.47338        2.37486       -0.89376
| 18>    C        1.66463       -0.44882        0.03918
| 19>    H        1.10282       -0.77810       -0.86084
| 20>    H        1.10255       -0.76280        0.94451
| 21>    H        2.61205       -1.00334        0.04451
| 22>    C        3.06055        1.71029        0.02064
| 23>    C        3.08784        3.12854        0.01211
| 24>    C        4.31174        1.03899        0.02223
| 25>    C        4.28997        3.83877        0.00580
| 26>    H        2.18013        3.71387        0.01026
| 27>    C        5.50835        3.15875        0.00757
| 28>    H        4.26426        4.92220       -0.00054
| 29>    C        5.51761        1.75156        0.01574
| 30>    H        4.40116       -0.03210        0.02808
| 31>    C        6.72632        3.85088        0.00125
| 32>    N        6.70293        1.08248        0.01721
| 33>    C        7.93219        3.13786        0.00296
| 34>    H        6.73558        4.93552       -0.00505
| 35>    C        7.89904        1.73200        0.01103
| 36>    C        9.16178        3.79655       -0.00327
| 37>    C        9.09226        1.00059        0.01264
| 38>    C       10.35346        3.06815       -0.00163
| 39>    H        9.20458        4.87951       -0.00950
| 40>    C       10.36116        1.64540        0.00629
| 41>    H       11.26086        3.65199       -0.00688
| 42>    H        8.99555       -0.07480        0.01893
| 43>    N       11.60983        0.88572        0.00773
| 44>    C       11.48095       -0.59045        0.01430
| 45>    C       12.86092        1.68017        0.00231
| 46>    C       12.70962       -1.49671        0.01373
| 47>    H       10.90264       -0.88753       -0.88823
| 48>    H       10.90758       -0.88025        0.92232
| 49>    H       13.30203       -1.38502       -0.91301
| 50>    H       12.36106       -2.55170        0.01857
| 51>    H       13.30816       -1.37877        0.93565
| 52>    C       14.23208        1.00883        0.00550
| 53>    H       12.85661        2.33117        0.90426
| 54>    H       12.85517        2.32171       -0.90636
| 55>    H       14.40558        0.43286        0.93307
| 56>    H       15.00657        1.80559        0.00106
| 57>    H       14.40555        0.42288       -0.91571
| 58> *
| 59>
| 60>
| 61>                          ****END OF INPUT****
 Total Charge           Charge          ....    0
 Multiplicity           Mult            ....    1
 Number of Electrons    NEL             ....  158
Dispersion correction           -0.017820215
FINAL SINGLE POINT ENERGY      -902.155461898921
Dispersion correction            ... done
Dispersion correction           -0.017986268
FINAL SINGLE POINT ENERGY      -902.180676626767
Dispersion correction            ... done
Dispersion correction           -0.017982432
FINAL SINGLE POINT ENERGY      -902.183312712265
Dispersion correction            ... done
FINAL SINGLE POINT ENERGY      -902.183634515673
                         Program Version 4.2.1 -  RELEASE  -
|  1> # avogadro generated ORCA input file
|  2> # Basic Mode
|  3> #
|  4> ! wB97X-D3 OPT def2-TZVP def2/J CPCM
|  5> %cpcm
|  6>   epsilon 3
|  7> end
|  8> %pal
|  9>  nprocs 4
| 10> end
| 11>
| 12> * xyz 0 1
| 13>    C        0.53925        1.74892        0.02139
| 14>    N        1.79177        1.00473        0.02703
| 15>    H        0.47360        2.38932        0.92648
| 16>    H       -0.34354        1.07239        0.02696
| 17>    H        0.47338        2.37486       -0.89376
| 18>    C        1.66463       -0.44882        0.03918
| 19>    H        1.10282       -0.77810       -0.86084
| 20>    H        1.10255       -0.76280        0.94451
| 21>    H        2.61205       -1.00334        0.04451
| 22>    C        3.06055        1.71029        0.02064
| 23>    C        3.08784        3.12854        0.01211
| 24>    C        4.31174        1.03899        0.02223
| 25>    C        4.28997        3.83877        0.00580
| 26>    H        2.18013        3.71387        0.01026
| 27>    C        5.50835        3.15875        0.00757
| 28>    H        4.26426        4.92220       -0.00054
| 29>    C        5.51761        1.75156        0.01574
| 30>    H        4.40116       -0.03210        0.02808
| 31>    C        6.72632        3.85088        0.00125
| 32>    N        6.70293        1.08248        0.01721
| 33>    C        7.93219        3.13786        0.00296
| 34>    H        6.73558        4.93552       -0.00505
| 35>    C        7.89904        1.73200        0.01103
| 36>    C        9.16178        3.79655       -0.00327
| 37>    C        9.09226        1.00059        0.01264
| 38>    C       10.35346        3.06815       -0.00163
| 39>    H        9.20458        4.87951       -0.00950
| 40>    C       10.36116        1.64540        0.00629
| 41>    H       11.26086        3.65199       -0.00688
| 42>    H        8.99555       -0.07480        0.01893
| 43>    N       11.60983        0.88572        0.00773
| 44>    C       11.48095       -0.59045        0.01430
| 45>    C       12.86092        1.68017        0.00231
| 46>    C       12.70962       -1.49671        0.01373
| 47>    H       10.90264       -0.88753       -0.88823
| 48>    H       10.90758       -0.88025        0.92232
| 49>    H       13.30203       -1.38502       -0.91301
| 50>    H       12.36106       -2.55170        0.01857
| 51>    H       13.30816       -1.37877        0.93565
| 52>    C       14.23208        1.00883        0.00550
| 53>    H       12.85661        2.33117        0.90426
| 54>    H       12.85517        2.32171       -0.90636
| 55>    H       14.40558        0.43286        0.93307
| 56>    H       15.00657        1.80559        0.00106
| 57>    H       14.40555        0.42288       -0.91571
| 58> *
| 59>
| 60>
| 61>                          ****END OF INPUT****
FINAL SINGLE POINT ENERGY      -902.184537804893
FINAL SINGLE POINT ENERGY      -902.155461898921
FINAL SINGLE POINT ENERGY      -902.184595019047
FINAL SINGLE POINT ENERGY      -902.184606931204
FINAL SINGLE POINT ENERGY      -902.180676626767
FINAL SINGLE POINT ENERGY      -902.184619750930
FINAL SINGLE POINT ENERGY      -902.204721557512
FINAL SINGLE POINT ENERGY      -902.204709232622
FINAL SINGLE POINT ENERGY      -902.204725381352
FINAL SINGLE POINT ENERGY      -902.204728105885
FINAL SINGLE POINT ENERGY      -902.204727255569
FINAL SINGLE POINT ENERGY      -902.204721557512
                    ***********************HURRAY********************
Dispersion correction           -0.018695050
FINAL SINGLE POINT ENERGY      -902.204727905853
                             ****ORCA TERMINATED NORMALLY****
Dispersion correction           -0.018698860
FINAL SINGLE POINT ENERGY      -902.204725381352
Dispersion correction            ... done
Dispersion correction           -0.018697268
FINAL SINGLE POINT ENERGY      -902.204727255569
Dispersion correction            ... done

CARTESIAN COORDINATES (ANGSTROEM)
---------------------------------
  C      0.804092    1.668828    0.275104
  N      2.076136    0.997019    0.451717
  H      0.672532    2.474577    1.000307
  H      0.005474    0.949153    0.439417
  H      0.684735    2.086127   -0.731548
  C      2.094541   -0.446352    0.378378
  H      2.399312   -0.810201   -0.611708
  H      1.099621   -0.827609    0.597160
  H      2.783471   -0.862321    1.116651
  C      3.253364    1.680487    0.283048
  C      3.238068    3.119313    0.228970
  C      4.467515    1.034832    0.172025
  C      4.383670    3.824896    0.088361
  H      2.299974    3.650006    0.303308
  C      5.647421    3.178213   -0.015704
  H      4.349273    4.908509    0.050596
  C      5.682638    1.751288    0.028551
  H      4.544222   -0.042776    0.188970
  C      6.845970    3.860150   -0.162719
  N      6.826716    1.059316   -0.068313
  C      8.034069    3.153079   -0.260499
  H      6.853507    4.945550   -0.200459
  C      7.975838    1.728680   -0.209403
  C      9.309459    3.770292   -0.414175
  C      9.186331    0.985005   -0.294068
  C     10.441130    3.036661   -0.501980
  H      9.360290    4.852243   -0.474042
  C     10.407200    1.598113   -0.440759
  H     11.382394    3.545879   -0.650701
  H      9.087708   -0.087990   -0.221196
  N     11.594988    0.888166   -0.583435
  C     11.482726   -0.564636   -0.629868
  C     12.789273    1.416336    0.071259
  C     12.760169   -1.269114   -1.054489
  H     10.703040   -0.800885   -1.355954
  H     11.142672   -0.969995    0.335109
  H     13.152079   -0.849122   -1.983038
  H     12.538575   -2.323211   -1.227710
  H     13.542024   -1.220286   -0.294516
  C     12.800171    1.223053    1.583727
  H     12.887831    2.473512   -0.164690
  H     13.658730    0.937367   -0.376407
  H     11.943148    1.717948    2.046259
  H     13.710379    1.647406    2.012030
  H     12.765706    0.165150    1.852952

 Multiplicity           Mult            ....    1
 Number of Electrons    NEL             ....  158
 Basis Dimension        Dim             ....  820

ORBITAL ENERGIES
----------------

  NO   OCC          E(Eh)            E(eV)
   0   2.0000     -14.439696      -392.9241
   1   2.0000     -14.431627      -392.7045
   2   2.0000     -14.396239      -391.7416
   3   2.0000     -10.322303      -280.8842
   4   2.0000     -10.319561      -280.8095
   5   2.0000     -10.309377      -280.5324
   6   2.0000     -10.309140      -280.5260
   7   2.0000     -10.299046      -280.2513
   8   2.0000     -10.298808      -280.2448
   9   2.0000     -10.298176      -280.2276
  10   2.0000     -10.295888      -280.1653
  11   2.0000     -10.292056      -280.0611
  12   2.0000     -10.282956      -279.8135
  13   2.0000     -10.281536      -279.7748
  14   2.0000     -10.278765      -279.6994
  15   2.0000     -10.278586      -279.6945
  16   2.0000     -10.275722      -279.6166
  17   2.0000     -10.274520      -279.5839
  18   2.0000     -10.262615      -279.2599
  19   2.0000     -10.258952      -279.1603
  20   2.0000     -10.255802      -279.0746
  21   2.0000     -10.254305      -279.0338
  22   2.0000      -1.073212       -29.2036
  23   2.0000      -1.067720       -29.0542
  24   2.0000      -1.055414       -28.7193
  25   2.0000      -0.966583       -26.3021
  26   2.0000      -0.954716       -25.9792
  27   2.0000      -0.913233       -24.8503
  28   2.0000      -0.883677       -24.0461
  29   2.0000      -0.873670       -23.7738
  30   2.0000      -0.869598       -23.6630
  31   2.0000      -0.848851       -23.0984
  32   2.0000      -0.837691       -22.7947
  33   2.0000      -0.821499       -22.3541
  34   2.0000      -0.788330       -21.4516
  35   2.0000      -0.759023       -20.6541
  36   2.0000      -0.749821       -20.4037
  37   2.0000      -0.718508       -19.5516
  38   2.0000      -0.710662       -19.3381
  39   2.0000      -0.705249       -19.1908
  40   2.0000      -0.681152       -18.5351
  41   2.0000      -0.642008       -17.4699
  42   2.0000      -0.637908       -17.3584
  43   2.0000      -0.616785       -16.7836
  44   2.0000      -0.607150       -16.5214
  45   2.0000      -0.589364       -16.0374
  46   2.0000      -0.581576       -15.8255
  47   2.0000      -0.572278       -15.5725
  48   2.0000      -0.569959       -15.5094
  49   2.0000      -0.563226       -15.3262
  50   2.0000      -0.541776       -14.7425
  51   2.0000      -0.534690       -14.5497
  52   2.0000      -0.532895       -14.5008
  53   2.0000      -0.527471       -14.3532
  54   2.0000      -0.523606       -14.2480
  55   2.0000      -0.517132       -14.0719
  56   2.0000      -0.510814       -13.9000
  57   2.0000      -0.502055       -13.6616
  58   2.0000      -0.497274       -13.5315
  59   2.0000      -0.492652       -13.4057
  60   2.0000      -0.487747       -13.2723
  61   2.0000      -0.480105       -13.0643
  62   2.0000      -0.475333       -12.9345
  63   2.0000      -0.474351       -12.9078
  64   2.0000      -0.466427       -12.6921
  65   2.0000      -0.458338       -12.4720
  66   2.0000      -0.453735       -12.3467
  67   2.0000      -0.446019       -12.1368
  68   2.0000      -0.436533       -11.8787
  69   2.0000      -0.434670       -11.8280
  70   2.0000      -0.427540       -11.6340
  71   2.0000      -0.423266       -11.5176
  72   2.0000      -0.411969       -11.2103
  73   2.0000      -0.375580       -10.2200
  74   2.0000      -0.343525        -9.3478
  75   2.0000      -0.341848        -9.3022
  76   2.0000      -0.324671        -8.8348
  77   2.0000      -0.271682        -7.3928
  78   2.0000      -0.266350        -7.2477
  79   0.0000       0.000291         0.0079
  80   0.0000       0.056646         1.5414
  81   0.0000       0.083120         2.2618
  82   0.0000       0.102217         2.7815
  83   0.0000       0.114200         3.1075

MULLIKEN ATOMIC CHARGES
-----------------------
   0 C :   -0.304454
   1 N :   -0.113651
   2 H :    0.140962
   3 H :    0.141409
   4 H :    0.141517
   5 C :   -0.306921
   6 H :    0.136652
   7 H :    0.140511
   8 H :    0.146977
   9 C :    0.352570
  10 C :   -0.245563
  11 C :   -0.491580
  12 C :   -0.253434
  13 H :    0.153388
  14 C :    0.103011
  15 H :    0.146927
  16 C :    0.198263
  17 H :    0.132074
  18 C :   -0.232756
  19 N :   -0.344279
  20 C :    0.097647
  21 H :    0.151505
  22 C :    0.189132
  23 C :   -0.233273
  24 C :   -0.462094
  25 C :   -0.235032
  26 H :    0.146812
  27 C :    0.291647
  28 H :    0.143783
  29 H :    0.136695
  30 N :   -0.082698
  31 C :   -0.164810
  32 C :   -0.176994
  33 C :   -0.410380
  34 H :    0.138789
  35 H :    0.126985
  36 H :    0.132846
  37 H :    0.141519
  38 H :    0.135650
  39 C :   -0.375671
  40 H :    0.124175
  41 H :    0.142963
  42 H :    0.138307
  43 H :    0.130982
  44 H :    0.129892
Sum of atomic charges:   -0.0000000

LOEWDIN ATOMIC CHARGES
----------------------
   0 C :   -0.294589
   1 N :    0.142432
   2 H :    0.118875
   3 H :    0.124499
   4 H :    0.116544
   5 C :   -0.293895
   6 H :    0.115668
   7 H :    0.122520
   8 H :    0.122653
   9 C :   -0.192369
  10 C :   -0.127209
  11 C :   -0.133379
  12 C :   -0.101907
  13 H :    0.154676
  14 C :   -0.126510
  15 H :    0.156509
  16 C :   -0.181582
  17 H :    0.152991
  18 C :   -0.035329
  19 N :    0.142885
  20 C :   -0.126617
  21 H :    0.160863
  22 C :   -0.180417
  23 C :   -0.104640
  24 C :   -0.127391
  25 C :   -0.124310
  26 H :    0.156136
  27 C :   -0.188517
  28 H :    0.152581
  29 H :    0.154036
  30 N :    0.170494
  31 C :   -0.296821
  32 C :   -0.292776
  33 C :   -0.311113
  34 H :    0.142944
  35 H :    0.127510
  36 H :    0.124043
  37 H :    0.128378
  38 H :    0.119382
  39 C :   -0.309153
  40 H :    0.134400
  41 H :    0.136725
  42 H :    0.124676
  43 H :    0.124492
  44 H :    0.121613

  Mayer bond orders larger than 0.100000
B(  0-C ,  1-N ) :   0.9562 B(  0-C ,  2-H ) :   0.9643 B(  0-C ,  3-H ) :   0.9684
B(  0-C ,  4-H ) :   0.9669 B(  1-N ,  5-C ) :   0.9606 B(  1-N ,  9-C ) :   1.2643
B(  5-C ,  6-H ) :   0.9697 B(  5-C ,  7-H ) :   0.9671 B(  5-C ,  8-H ) :   0.9625
B(  9-C , 10-C ) :   1.0747 B(  9-C , 11-C ) :   1.4252 B( 10-C , 12-C ) :   1.7069
B( 10-C , 13-H ) :   0.9710 B( 11-C , 16-C ) :   1.3713 B( 11-C , 17-H ) :   0.9429
B( 12-C , 14-C ) :   1.1040 B( 12-C , 15-H ) :   0.9835 B( 14-C , 16-C ) :   1.1595
B( 14-C , 18-C ) :   1.3352 B( 16-C , 19-N ) :   1.4362 B( 18-C , 20-C ) :   1.3479
B( 18-C , 21-H ) :   0.9676 B( 19-N , 22-C ) :   1.4596 B( 20-C , 22-C ) :   1.1635
B( 20-C , 23-C ) :   1.0918 B( 22-C , 24-C ) :   1.3372 B( 23-C , 25-C ) :   1.7055
B( 23-C , 26-H ) :   0.9850 B( 24-C , 27-C ) :   1.4711 B( 24-C , 29-H ) :   0.9529
B( 25-C , 27-C ) :   1.1038 B( 25-C , 28-H ) :   0.9754 B( 27-C , 30-N ) :   1.2365
B( 30-N , 31-C ) :   0.9586 B( 30-N , 32-C ) :   0.9269 B( 31-C , 33-C ) :   0.9607
B( 31-C , 34-H ) :   0.9552 B( 31-C , 35-H ) :   0.9640 B( 32-C , 39-C ) :   0.9637
B( 32-C , 40-H ) :   0.9751 B( 32-C , 41-H ) :   0.9746 B( 33-C , 36-H ) :   0.9799
B( 33-C , 37-H ) :   0.9732 B( 33-C , 38-H ) :   0.9769 B( 39-C , 42-H ) :   0.9699
B( 39-C , 43-H ) :   0.9758 B( 39-C , 44-H ) :   0.9695

Dispersion correction           -0.018695050
FINAL SINGLE POINT ENERGY      -902.204727905853

DIPOLE MOMENT
-------------
                                X             Y             Z
Electronic contribution:    -10.97884      12.05590      -2.27186
Nuclear contribution   :     10.67886     -11.65404       2.40418
                        -----------------------------------------
Total Dipole Moment    :     -0.29998       0.40186       0.13232
                        -----------------------------------------
Magnitude (a.u.)       :      0.51864
Magnitude (Debye)      :      1.31828

Rotational constants in cm-1:     0.024528     0.003768     0.003377
Rotational constants in MHz :   735.330875   112.971205   101.246210

                             ****ORCA TERMINATED NORMALLY****
TOTAL RUN TIME: 1 days 1 hours 24 minutes 32 seconds 912 msec
