                         Program Version 4.2.1 -  RELEASE  -
                         Program Version 4.2.1 -  RELEASE  -
|  1> # avogadro generated ORCA input file
|  2> # Basic Mode
|  3> #
|  4> ! wB97X-D3 OPT def2-TZVP def2/J CPCM
|  5> %cpcm
|  6>   epsilon 3
|  7> end
|  8> %pal
|  9>  nprocs 4
| 10> end
| 11>
| 12> * xyz 0 1
| 13>    S       -1.66682        2.93988       -0.26681
| 14>    H       -1.00422        1.71719        0.23553
| 15>    H       -2.63794        1.94353       -0.94035
| 16>    S       -1.85692       -0.05681       -0.34009
| 17>    H       -1.04995        1.04965        0.21711
| 18>    H       -2.69213        1.08528       -0.96135
| 19>    S        0.16083        1.97685        1.02557
| 20>    S        0.06268        0.59453        0.99081
| 21>    H        1.00239        1.24494        0.10788
| 22>    H        1.46186        1.22323       -0.37453
| 23>    S        2.27551        1.87213       -1.37605
| 24>    S        2.39918        0.49018       -1.19291
| 25>    H        3.46075        1.70998       -0.59090
| 26>    H        3.51891        1.04916       -0.50285
| 27>    S        4.12439        2.98802       -0.25752
| 28>    S        4.37163        0.01946        0.12741
| 29>    H        5.15324        2.08173        0.45667
| 30>    H        5.22390        1.23147        0.56679
| 31> *
| 32>
| 33>
| 34>                          ****END OF INPUT****
 Total Charge           Charge          ....    0
 Multiplicity           Mult            ....    1
 Number of Electrons    NEL             ....  138
 Basis Dimension        Dim             ....  356

ORBITAL ENERGIES
----------------

  NO   OCC          E(Eh)            E(eV)
   0   2.0000     -88.988142     -2421.4905
   1   2.0000     -88.984832     -2421.4004
   2   2.0000     -88.982658     -2421.3412
   3   2.0000     -88.980244     -2421.2755
   4   2.0000     -88.970167     -2421.0013
   5   2.0000     -88.970022     -2420.9974
   6   2.0000     -88.966109     -2420.8909
   7   2.0000     -88.965253     -2420.8676
   8   2.0000      -8.103403      -220.5048
   9   2.0000      -8.101879      -220.4633
  10   2.0000      -8.094688      -220.2676
  11   2.0000      -8.094114      -220.2520
  12   2.0000      -8.083098      -219.9523
  13   2.0000      -8.079848      -219.8638
  14   2.0000      -8.077812      -219.8084
  15   2.0000      -8.075355      -219.7416
  16   2.0000      -6.062058      -164.9570
  17   2.0000      -6.059993      -164.9008
  18   2.0000      -6.048390      -164.5851
  19   2.0000      -6.047511      -164.5611
  20   2.0000      -6.043615      -164.4551
  21   2.0000      -6.043375      -164.4486
  22   2.0000      -6.041045      -164.3852
  23   2.0000      -6.039767      -164.3504
  24   2.0000      -6.038573      -164.3179
  25   2.0000      -6.038289      -164.3102
  26   2.0000      -6.037512      -164.2891
  27   2.0000      -6.035530      -164.2351
  28   2.0000      -6.034926      -164.2187
  29   2.0000      -6.033961      -164.1924
  30   2.0000      -6.032582      -164.1549
  31   2.0000      -6.031926      -164.1371
  32   2.0000      -6.029474      -164.0703
  33   2.0000      -6.029196      -164.0628
  34   2.0000      -6.027425      -164.0146
  35   2.0000      -6.026235      -163.9822
  36   2.0000      -6.025076      -163.9507
  37   2.0000      -6.023132      -163.8978
  38   2.0000      -6.021090      -163.8422
  39   2.0000      -6.018806      -163.7800
  40   2.0000      -1.240114       -33.7452
  41   2.0000      -1.220531       -33.2123
  42   2.0000      -0.985477       -26.8162
  43   2.0000      -0.965442       -26.2710
  44   2.0000      -0.854271       -23.2459
  45   2.0000      -0.849651       -23.1202
  46   2.0000      -0.826405       -22.4876
  47   2.0000      -0.780150       -21.2290
  48   2.0000      -0.752688       -20.4817
  49   2.0000      -0.699873       -19.0445
  50   2.0000      -0.685938       -18.6653
  51   2.0000      -0.631439       -17.1823
  52   2.0000      -0.615600       -16.7513
  53   2.0000      -0.610327       -16.6078
  54   2.0000      -0.515161       -14.0182
  55   2.0000      -0.503262       -13.6944
  56   2.0000      -0.448848       -12.2138
  57   2.0000      -0.446569       -12.1518
  58   2.0000      -0.442769       -12.0484
  59   2.0000      -0.441362       -12.0101
  60   2.0000      -0.407268       -11.0823
  61   2.0000      -0.395369       -10.7585
  62   2.0000      -0.384249       -10.4560
  63   2.0000      -0.380356       -10.3500
  64   2.0000      -0.378035       -10.2869
  65   2.0000      -0.369150       -10.0451
  66   2.0000      -0.296567        -8.0700
  67   2.0000      -0.283535        -7.7154
  68   2.0000      -0.225140        -6.1264
  69   0.0000      -0.069898        -1.9020
  70   0.0000      -0.054964        -1.4956
  71   0.0000      -0.002497        -0.0680
  72   0.0000       0.000657         0.0179
  73   0.0000       0.007451         0.2027

MULLIKEN ATOMIC CHARGES
-----------------------
   0 S :   -0.336404
   1 H :    0.265118
   2 H :    0.132682
   3 S :   -0.316107
   4 H :    0.240305
   5 H :    0.136855
   6 S :   -0.086933
   7 S :   -0.091817
   8 H :    0.041713
   9 H :    0.046839
  10 S :   -0.099977
  11 S :   -0.106137
  12 H :    0.267626
  13 H :    0.245472
  14 S :   -0.316572
  15 S :   -0.294683
  16 H :    0.134232
  17 H :    0.137788
Sum of atomic charges:   -0.0000000

LOEWDIN ATOMIC CHARGES
----------------------
   0 S :   -0.070169
   1 H :   -0.026345
   2 H :    0.056810
   3 S :   -0.057630
   4 H :   -0.024461
   5 H :    0.058176
   6 S :    0.062945
   7 S :    0.048820
   8 H :   -0.062824
   9 H :   -0.064207
  10 S :    0.058633
  11 S :    0.041415
  12 H :   -0.023666
  13 H :   -0.021771
  14 S :   -0.054071
  15 S :   -0.039354
  16 H :    0.058187
  17 H :    0.059513

  Mayer bond orders larger than 0.100000
B(  0-S ,  1-H ) :   0.4691 B(  0-S ,  2-H ) :   0.6528 B(  0-S ,  3-S ) :   0.2228
B(  0-S ,  6-S ) :   0.3956 B(  0-S ,  7-S ) :   0.2643 B(  1-H ,  4-H ) :   0.2702
B(  2-H ,  5-H ) :   0.2829 B(  3-S ,  4-H ) :   0.4821 B(  3-S ,  5-H ) :   0.6516
B(  3-S ,  6-S ) :   0.2600 B(  3-S ,  7-S ) :   0.4175 B(  4-H ,  7-S ) :   0.1239
B(  6-S ,  7-S ) :   2.1050 B(  6-S ,  8-H ) :   0.1814 B(  7-S ,  8-H ) :   0.1600
B(  7-S , 11-S ) :   0.1232 B(  8-H ,  9-H ) :   0.6900 B(  9-H , 10-S ) :   0.1840
B(  9-H , 11-S ) :   0.1582 B( 10-S , 11-S ) :   2.0788 B( 10-S , 12-H ) :   0.1002
B( 10-S , 14-S ) :   0.3738 B( 10-S , 15-S ) :   0.2571 B( 11-S , 13-H ) :   0.1221
B( 11-S , 14-S ) :   0.2594 B( 11-S , 15-S ) :   0.3961 B( 12-H , 13-H ) :   0.2607
B( 12-H , 14-S ) :   0.4761 B( 13-H , 15-S ) :   0.4917 B( 14-S , 15-S ) :   0.2262
B( 14-S , 16-H ) :   0.6568 B( 15-S , 17-H ) :   0.6544 B( 16-H , 17-H ) :   0.2799

Dispersion correction           -0.008089194
FINAL SINGLE POINT ENERGY     -3189.618587400313
Dispersion correction            ... done
Dispersion correction           -0.008121887
FINAL SINGLE POINT ENERGY     -3189.946139069092
Dispersion correction            ... done
Dispersion correction           -0.008106944
FINAL SINGLE POINT ENERGY     -3190.206931162153
Dispersion correction            ... done
FINAL SINGLE POINT ENERGY     -3190.412259122150
FINAL SINGLE POINT ENERGY     -3190.573391333510
FINAL SINGLE POINT ENERGY     -3190.701213291886
FINAL SINGLE POINT ENERGY     -3190.803907541283
FINAL SINGLE POINT ENERGY     -3190.887630038121
FINAL SINGLE POINT ENERGY     -3190.957248385178
FINAL SINGLE POINT ENERGY     -3191.015491015313
FINAL SINGLE POINT ENERGY     -3191.490586037904
FINAL SINGLE POINT ENERGY     -3191.491668442721
FINAL SINGLE POINT ENERGY     -3191.492582271466
FINAL SINGLE POINT ENERGY     -3191.493325968217
FINAL SINGLE POINT ENERGY     -3191.493965633368
FINAL SINGLE POINT ENERGY     -3191.494493100136
FINAL SINGLE POINT ENERGY     -3191.494929936803
Dispersion correction           -0.006740220
FINAL SINGLE POINT ENERGY     -3191.495269218564
Dispersion correction            ... done
Dispersion correction           -0.006682553
FINAL SINGLE POINT ENERGY     -3191.495541425747
Dispersion correction            ... done

CARTESIAN COORDINATES (ANGSTROEM)
---------------------------------
  S     -4.403397    3.853083   -0.081641
  H     -3.965818    2.648432    0.300370
  H     -5.248767    3.351865   -0.989440
  S     -4.748787   -0.866636   -0.386648
  H     -4.110229    0.168682    0.170303
  H     -5.472034   -0.089024   -1.200884
  S     -1.554480    2.074530    2.145532
  S     -1.677143    0.203017    2.052514
  H      0.923351    1.063144    0.132610
  H      1.513702    1.038992   -0.321177
  S      3.947397    1.891488   -2.464252
  S      4.101450    0.042638   -2.174052
  H      6.415094    2.697361   -0.781400
  H      6.605626    0.248561   -0.375374
  S      6.874908    3.937064   -0.579815
  S      7.279000   -0.739984    0.223322
  H      7.795779    3.541359    0.306508
  H      8.031639    0.095829    0.947934

Dispersion correction           -0.006616689
FINAL SINGLE POINT ENERGY     -3191.495738886027
Dispersion correction            ... done

DIPOLE MOMENT
-------------
                                X             Y             Z
Electronic contribution:     -0.16797      -1.55012       0.20424
Nuclear contribution   :      0.17971       1.61790      -0.18781
                        -----------------------------------------
Total Dipole Moment    :      0.01174       0.06779       0.01643
                        -----------------------------------------
Magnitude (a.u.)       :      0.07073
Magnitude (Debye)      :      0.17978

Rotational constants in cm-1:     0.012068     0.002594     0.002470
Rotational constants in MHz :   361.781891    77.755313    74.038240

                             ****ORCA TERMINATED NORMALLY****
TOTAL RUN TIME: 0 days 4 hours 56 minutes 52 seconds 236 msec
