                         Program Version 4.2.1 -  RELEASE  -
|  1> # avogadro generated ORCA input file
|  2> # Basic Mode
|  3> #
|  4> ! wB97X-D3 OPT def2-TZVP def2/J CPCM
|  5> %cpcm
|  6>   epsilon 3
|  7> end
|  8> %pal
|  9>  nprocs 4
| 10> end
| 11>
| 12> * xyz 0 1
| 13>    C        4.14670        2.88093        0.23486
| 14>    C        4.55099        1.76156       -0.71586
| 15>    C        2.65554        3.22430        0.02786
| 16>    H        4.76131        3.79328        0.07912
| 17>    H        4.31078        2.52031        1.27463
| 18>    N        1.81224        2.03989       -0.04187
| 19>    H        2.51783        3.79314       -0.91681
| 20>    H        2.33703        3.87085        0.87322
| 21>    C        2.36184        0.73451       -0.19053
| 22>    H        0.78826        2.15965       -0.05148
| 23>    N        3.76949        0.58684       -0.37637
| 24>    H        5.63991        1.54983       -0.64860
| 25>    H        4.31910        2.08144       -1.75555
| 26>    N        1.58906       -0.30359       -0.17689
| 27>    C        4.36395       -0.72995       -0.24323
| 28>    C        3.47710       -1.70611       -1.00177
| 29>    H        4.37536       -1.02629        0.82891
| 30>    H        5.40847       -0.74502       -0.62236
| 31>    C        2.07097       -1.66564       -0.37007
| 32>    H        3.88000       -2.74092       -0.96905
| 33>    H        3.42444       -1.37776       -2.06350
| 34>    H        1.36993       -2.22739       -1.02250
| 35>    H        2.08706       -2.16231        0.62391
| 36> *
| 37>
| 38>
| 39>                          ****END OF INPUT****
 Total Charge           Charge          ....    0
 Multiplicity           Mult            ....    1
 Number of Electrons    NEL             ....   76
Dispersion correction           -0.007887117
FINAL SINGLE POINT ENERGY      -438.859043415909
Dispersion correction            ... done
Dispersion correction           -0.007895025
FINAL SINGLE POINT ENERGY      -438.872431569279
Dispersion correction            ... done
Dispersion correction           -0.007892926
FINAL SINGLE POINT ENERGY      -438.874723320331
Dispersion correction            ... done
FINAL SINGLE POINT ENERGY      -438.875660366291
FINAL SINGLE POINT ENERGY      -438.876379621372
FINAL SINGLE POINT ENERGY      -438.876954742946
FINAL SINGLE POINT ENERGY      -438.877495646927
FINAL SINGLE POINT ENERGY      -438.877993655254
FINAL SINGLE POINT ENERGY      -438.878417347774
FINAL SINGLE POINT ENERGY      -438.878789958575
FINAL SINGLE POINT ENERGY      -438.879069537084
FINAL SINGLE POINT ENERGY      -438.879202523879
FINAL SINGLE POINT ENERGY      -438.879241745387
FINAL SINGLE POINT ENERGY      -438.879284248906
FINAL SINGLE POINT ENERGY      -438.879302601808
Dispersion correction            ... done
Dispersion correction           -0.007836848
FINAL SINGLE POINT ENERGY      -438.879316438390
Dispersion correction            ... done
Dispersion correction           -0.007837482
FINAL SINGLE POINT ENERGY      -438.879321434033
Dispersion correction            ... done
                    ***********************HURRAY********************

CARTESIAN COORDINATES (ANGSTROEM)
---------------------------------
  C      4.060627    2.973740    0.326492
  C      4.659189    1.717501   -0.274803
  C      2.649126    3.144674   -0.197144
  H      4.681595    3.831666    0.065300
  H      4.029874    2.894563    1.415916
  N      1.900662    1.960894    0.165843
  H      2.668626    3.309692   -1.283958
  H      2.165439    4.008387    0.259733
  C      2.393246    0.693619   -0.076621
  H      0.900675    1.992517    0.055786
  N      3.750784    0.582751   -0.214520
  H      5.576365    1.444106    0.254869
  H      4.937947    1.904109   -1.321087
  N      1.547973   -0.277892   -0.100495
  C      4.347029   -0.694415   -0.579419
  C      3.310245   -1.644674   -1.144780
  H      4.833799   -1.138189    0.297389
  H      5.130401   -0.501875   -1.318787
  C      2.080007   -1.616453   -0.251292
  H      3.731486   -2.649265   -1.215482
  H      3.028319   -1.328665   -2.153521
  H      1.296578   -2.256011   -0.664451
  H      2.337366   -2.039230    0.731103

 Multiplicity           Mult            ....    1
 Number of Electrons    NEL             ....   76
 Basis Dimension        Dim             ....  388

ORBITAL ENERGIES
----------------

  NO   OCC          E(Eh)            E(eV)
   0   2.0000     -14.434783      -392.7904
   1   2.0000     -14.416720      -392.2989
   2   2.0000     -14.357247      -390.6805
   3   2.0000     -10.359494      -281.8962
   4   2.0000     -10.307050      -280.4691
   5   2.0000     -10.302683      -280.3503
   6   2.0000     -10.301166      -280.3090
   7   2.0000     -10.278808      -279.7006
   8   2.0000     -10.274220      -279.5757
   9   2.0000     -10.262953      -279.2692
  10   2.0000      -1.110024       -30.2053
  11   2.0000      -1.020814       -27.7778
  12   2.0000      -0.991292       -26.9744
  13   2.0000      -0.894732       -24.3469
  14   2.0000      -0.886775       -24.1304
  15   2.0000      -0.791835       -21.5469
  16   2.0000      -0.776331       -21.1250
  17   2.0000      -0.756823       -20.5942
  18   2.0000      -0.686559       -18.6822
  19   2.0000      -0.639577       -17.4038
  20   2.0000      -0.606835       -16.5128
  21   2.0000      -0.600329       -16.3358
  22   2.0000      -0.594706       -16.1828
  23   2.0000      -0.554501       -15.0887
  24   2.0000      -0.546490       -14.8707
  25   2.0000      -0.536500       -14.5989
  26   2.0000      -0.513636       -13.9767
  27   2.0000      -0.506621       -13.7859
  28   2.0000      -0.497982       -13.5508
  29   2.0000      -0.489544       -13.3212
  30   2.0000      -0.462086       -12.5740
  31   2.0000      -0.443380       -12.0650
  32   2.0000      -0.436021       -11.8647
  33   2.0000      -0.421927       -11.4812
  34   2.0000      -0.411737       -11.2039
  35   2.0000      -0.332294        -9.0422
  36   2.0000      -0.323525        -8.8036
  37   2.0000      -0.286954        -7.8084
  38   0.0000       0.111673         3.0388
  39   0.0000       0.121426         3.3042
  40   0.0000       0.140810         3.8316
  41   0.0000       0.145944         3.9713
  42   0.0000       0.163004         4.4356

MULLIKEN ATOMIC CHARGES
-----------------------
   0 C :   -0.229888
   1 C :   -0.150548
   2 C :   -0.084830
   3 H :    0.132192
   4 H :    0.116960
   5 N :   -0.351128
   6 H :    0.103030
   7 H :    0.130376
   8 C :    0.183879
   9 H :    0.250269
  10 N :   -0.126945
  11 H :    0.131122
  12 H :    0.113474
  13 N :   -0.437508
  14 C :   -0.154799
  15 C :   -0.211149
  16 H :    0.117886
  17 H :    0.127394
  18 C :   -0.083533
  19 H :    0.117689
  20 H :    0.103832
  21 H :    0.114067
  22 H :    0.088160
Sum of atomic charges:   -0.0000000

LOEWDIN ATOMIC CHARGES
----------------------
   0 C :   -0.259849
   1 C :   -0.259565
   2 C :   -0.288769
   3 H :    0.145503
   4 H :    0.143215
   5 N :    0.085928
   6 H :    0.127061
   7 H :    0.136439
   8 C :   -0.417292
   9 H :    0.189195
  10 N :    0.186446
  11 H :    0.139267
  12 H :    0.132819
  13 N :   -0.020173
  14 C :   -0.254726
  15 C :   -0.267200
  16 H :    0.133017
  17 H :    0.138320
  18 C :   -0.322726
  19 H :    0.141009
  20 H :    0.138774
  21 H :    0.127466
  22 H :    0.125839

  Mayer bond orders larger than 0.100000
B(  0-C ,  1-C ) :   1.0121 B(  0-C ,  2-C ) :   0.9820 B(  0-C ,  3-H ) :   0.9691
B(  0-C ,  4-H ) :   0.9706 B(  1-C , 10-N ) :   0.9269 B(  1-C , 11-H ) :   0.9611
B(  1-C , 12-H ) :   0.9603 B(  2-C ,  5-N ) :   0.9525 B(  2-C ,  6-H ) :   0.9729
B(  2-C ,  7-H ) :   0.9639 B(  5-N ,  8-C ) :   1.1742 B(  5-N ,  9-H ) :   0.9019
B(  8-C , 10-N ) :   1.2288 B(  8-C , 13-N ) :   1.8908 B( 10-N , 14-C ) :   0.9171
B( 13-N , 18-C ) :   1.0097 B( 14-C , 15-C ) :   1.0006 B( 14-C , 16-H ) :   0.9633
B( 14-C , 17-H ) :   0.9630 B( 15-C , 18-C ) :   0.9730 B( 15-C , 19-H ) :   0.9666
B( 15-C , 20-H ) :   0.9732 B( 18-C , 21-H ) :   0.9730 B( 18-C , 22-H ) :   0.9692

Dispersion correction           -0.007837870
FINAL SINGLE POINT ENERGY      -438.879322175366

DIPOLE MOMENT
-------------
                                X             Y             Z
Electronic contribution:     -3.43920       0.42184       1.19504
Nuclear contribution   :      4.93798       0.45670      -1.64610
                        -----------------------------------------
Total Dipole Moment    :      1.49878       0.87854      -0.45106
                        -----------------------------------------
Magnitude (a.u.)       :      1.79489
Magnitude (Debye)      :      4.56225

Rotational constants in cm-1:     0.090112     0.038134     0.028474
Rotational constants in MHz :  2701.488360  1143.218328   853.633751

                             ****ORCA TERMINATED NORMALLY****
TOTAL RUN TIME: 0 days 3 hours 36 minutes 44 seconds 370 msec
