                         Program Version 4.2.1 -  RELEASE  -
|  1> # avogadro generated ORCA input file
|  2> # Basic Mode
|  3> #
|  4> ! wB97X-D3 OPT def2-TZVP def2/J CPCM
|  5> %cpcm
|  6>   epsilon 3
|  7> end
|  8> %pal
|  9>  nprocs 4
| 10> end
| 11>
| 12>
| 13> * xyz 0 1
| 14>    C        3.67579       -0.50227        1.18010
| 15>    O        4.19023        0.61679        0.55878
| 16>    C        4.18396        0.85615       -0.77824
| 17>    C        4.74799        2.04756       -1.24110
| 18>    C        4.76683        2.34578       -2.60584
| 19>    C        4.21994        1.45333       -3.55360
| 20>    N        4.23770        1.75905       -4.96876
| 21>    C        4.16032        3.13393       -5.41638
| 22>    C        4.79411        3.54929       -6.60798
| 23>    C        4.72110        4.87634       -7.03809
| 24>    C        4.01482        5.82845       -6.29911
| 25>    O        3.97558        7.10451       -6.76287
| 26>    C        3.32866        8.16262       -6.15895
| 27>    C        3.37573        5.43114       -5.11070
| 28>    C        3.44921        4.10463       -4.67725
| 29>    C        4.33333        0.68802       -5.93774
| 30>    C        3.71493        0.78693       -7.19682
| 31>    C        3.80376       -0.24694       -8.13201
| 32>    C        4.52326       -1.43358       -7.85711
| 33>    C        4.62397       -2.55581       -8.87255
| 34>    C        3.89656       -2.52599      -10.08553
| 35>    C        3.98836       -3.56189      -11.01819
| 36>    C        4.81469       -4.67706      -10.79223
| 37>    N        4.91106       -5.74788      -11.76138
| 38>    C        3.76310       -6.09259      -12.57377
| 39>    C        2.44875       -5.93706      -12.08141
| 40>    C        1.34161       -6.27204      -12.86461
| 41>    C        1.50733       -6.76853      -14.15979
| 42>    O        0.39685       -7.07820      -14.87800
| 43>    C        0.38117       -7.57836      -16.16346
| 44>    C        2.80980       -6.92757      -14.66666
| 45>    C        3.91898       -6.59522      -13.88423
| 46>    C        6.15530       -6.47208      -11.91653
| 47>    C        7.39873       -5.84005      -11.69621
| 48>    C        8.59894       -6.53841      -11.84840
| 49>    C        8.59917       -7.88471      -12.22113
| 50>    O        9.79441       -8.51597      -12.35468
| 51>    C        9.97394       -9.83510      -12.71590
| 52>    C        7.36916       -8.53028      -12.44238
| 53>    C        6.16726       -7.83313      -12.29288
| 54>    C        5.54402       -4.71406       -9.59049
| 55>    C        5.45000       -3.68305       -8.65267
| 56>    C        5.14436       -1.52270       -6.58920
| 57>    C        5.04811       -0.48935       -5.65420
| 58>    C        3.65449        0.25108       -3.07479
| 59>    C        3.63461       -0.04389       -1.70913
| 60>    H        3.82811       -0.41101        2.27502
| 61>    H        4.20050       -1.41452        0.82433
| 62>    H        2.58624       -0.58584        0.98001
| 63>    H        5.17843        2.74935       -0.53753
| 64>    H        5.22767        3.27373       -2.91655
| 65>    H        5.36525        2.85231       -7.20643
| 66>    H        5.22138        5.16680       -7.95360
| 67>    H        3.47637        9.07510       -6.77212
| 68>    H        3.75050        8.34368       -5.14732
| 69>    H        2.23942        7.95653       -6.08738
| 70>    H        2.81633        6.13860       -4.51347
| 71>    H        2.93079        3.83918       -3.76573
| 72>    H        3.14040        1.66466       -7.46223
| 73>    H        3.29825       -0.07857       -9.06690
| 74>    H        3.23819       -1.71608      -10.34724
| 75>    H        3.41588       -3.47522      -11.93236
| 76>    H        2.26976       -5.57064      -11.07950
| 77>    H        0.34555       -6.14670      -12.45846
| 78>    H       -0.67095       -7.73097      -16.47994
| 79>    H        0.90773       -8.55580      -16.20158
| 80>    H        0.86011       -6.85893      -16.86137
| 81>    H        2.97830       -7.30546      -15.66612
| 82>    H        4.90187       -6.71920      -14.31857
| 83>    H        7.45064       -4.79525      -11.42086
| 84>    H        9.53757       -6.02602      -11.67746
| 85>    H       11.06001      -10.05928      -12.74059
| 86>    H        9.55174      -10.01713      -13.72719
| 87>    H        9.49069      -10.50572      -11.97376
| 88>    H        7.32858       -9.57270      -12.72843
| 89>    H        5.24406       -8.37201      -12.45841
| 90>    H        6.18436       -5.55510       -9.35905
| 91>    H        6.04621       -3.80086       -7.76466
| 92>    H        5.71188       -2.38326       -6.28054
| 93>    H        5.55509       -0.61260       -4.70618
| 94>    H        3.20793       -0.46205       -3.75471
| 95>    H        3.18625       -0.97486       -1.38916
| 96> *
| 97>
| 98>
| 99>                          ****END OF INPUT****
 Total Charge           Charge          ....    0
 Multiplicity           Mult            ....    1
 Number of Electrons    NEL             ....  322
Dispersion correction           -0.039499551
FINAL SINGLE POINT ENERGY     -1956.416285095341
Dispersion correction            ... done
Dispersion correction           -0.040055534
FINAL SINGLE POINT ENERGY     -1956.444082608130
Dispersion correction            ... done
Dispersion correction           -0.040408293
FINAL SINGLE POINT ENERGY     -1956.453351073158
Dispersion correction            ... done
FINAL SINGLE POINT ENERGY     -1956.456347822376
FINAL SINGLE POINT ENERGY     -1956.457447171662
FINAL SINGLE POINT ENERGY     -1956.458382964117
FINAL SINGLE POINT ENERGY     -1956.459097621093
FINAL SINGLE POINT ENERGY     -1956.459539565732
FINAL SINGLE POINT ENERGY     -1956.459639931908
FINAL SINGLE POINT ENERGY     -1956.459691449362
                         Program Version 4.2.1 -  RELEASE  -
|  1> # avogadro generated ORCA input file
|  2> # Basic Mode
|  3> #
|  4> ! wB97X-D3 OPT def2-TZVP def2/J CPCM
|  5> %cpcm
|  6>   epsilon 3
|  7> end
|  8> %pal
|  9>  nprocs 4
| 10> end
| 11>
| 12>
| 13> * xyz 0 1
| 14>    C        3.67579       -0.50227        1.18010
| 15>    O        4.19023        0.61679        0.55878
| 16>    C        4.18396        0.85615       -0.77824
| 17>    C        4.74799        2.04756       -1.24110
| 18>    C        4.76683        2.34578       -2.60584
| 19>    C        4.21994        1.45333       -3.55360
| 20>    N        4.23770        1.75905       -4.96876
| 21>    C        4.16032        3.13393       -5.41638
| 22>    C        4.79411        3.54929       -6.60798
| 23>    C        4.72110        4.87634       -7.03809
| 24>    C        4.01482        5.82845       -6.29911
| 25>    O        3.97558        7.10451       -6.76287
| 26>    C        3.32866        8.16262       -6.15895
| 27>    C        3.37573        5.43114       -5.11070
| 28>    C        3.44921        4.10463       -4.67725
| 29>    C        4.33333        0.68802       -5.93774
| 30>    C        3.71493        0.78693       -7.19682
| 31>    C        3.80376       -0.24694       -8.13201
| 32>    C        4.52326       -1.43358       -7.85711
| 33>    C        4.62397       -2.55581       -8.87255
| 34>    C        3.89656       -2.52599      -10.08553
| 35>    C        3.98836       -3.56189      -11.01819
| 36>    C        4.81469       -4.67706      -10.79223
| 37>    N        4.91106       -5.74788      -11.76138
| 38>    C        3.76310       -6.09259      -12.57377
| 39>    C        2.44875       -5.93706      -12.08141
| 40>    C        1.34161       -6.27204      -12.86461
| 41>    C        1.50733       -6.76853      -14.15979
| 42>    O        0.39685       -7.07820      -14.87800
| 43>    C        0.38117       -7.57836      -16.16346
| 44>    C        2.80980       -6.92757      -14.66666
| 45>    C        3.91898       -6.59522      -13.88423
| 46>    C        6.15530       -6.47208      -11.91653
| 47>    C        7.39873       -5.84005      -11.69621
| 48>    C        8.59894       -6.53841      -11.84840
| 49>    C        8.59917       -7.88471      -12.22113
| 50>    O        9.79441       -8.51597      -12.35468
| 51>    C        9.97394       -9.83510      -12.71590
| 52>    C        7.36916       -8.53028      -12.44238
| 53>    C        6.16726       -7.83313      -12.29288
| 54>    C        5.54402       -4.71406       -9.59049
| 55>    C        5.45000       -3.68305       -8.65267
| 56>    C        5.14436       -1.52270       -6.58920
| 57>    C        5.04811       -0.48935       -5.65420
| 58>    C        3.65449        0.25108       -3.07479
| 59>    C        3.63461       -0.04389       -1.70913
| 60>    H        3.82811       -0.41101        2.27502
| 61>    H        4.20050       -1.41452        0.82433
| 62>    H        2.58624       -0.58584        0.98001
| 63>    H        5.17843        2.74935       -0.53753
| 64>    H        5.22767        3.27373       -2.91655
| 65>    H        5.36525        2.85231       -7.20643
| 66>    H        5.22138        5.16680       -7.95360
| 67>    H        3.47637        9.07510       -6.77212
| 68>    H        3.75050        8.34368       -5.14732
| 69>    H        2.23942        7.95653       -6.08738
| 70>    H        2.81633        6.13860       -4.51347
| 71>    H        2.93079        3.83918       -3.76573
| 72>    H        3.14040        1.66466       -7.46223
| 73>    H        3.29825       -0.07857       -9.06690
| 74>    H        3.23819       -1.71608      -10.34724
| 75>    H        3.41588       -3.47522      -11.93236
| 76>    H        2.26976       -5.57064      -11.07950
| 77>    H        0.34555       -6.14670      -12.45846
| 78>    H       -0.67095       -7.73097      -16.47994
| 79>    H        0.90773       -8.55580      -16.20158
| 80>    H        0.86011       -6.85893      -16.86137
| 81>    H        2.97830       -7.30546      -15.66612
| 82>    H        4.90187       -6.71920      -14.31857
| 83>    H        7.45064       -4.79525      -11.42086
| 84>    H        9.53757       -6.02602      -11.67746
| 85>    H       11.06001      -10.05928      -12.74059
| 86>    H        9.55174      -10.01713      -13.72719
| 87>    H        9.49069      -10.50572      -11.97376
| 88>    H        7.32858       -9.57270      -12.72843
| 89>    H        5.24406       -8.37201      -12.45841
| 90>    H        6.18436       -5.55510       -9.35905
| 91>    H        6.04621       -3.80086       -7.76466
| 92>    H        5.71188       -2.38326       -6.28054
| 93>    H        5.55509       -0.61260       -4.70618
| 94>    H        3.20793       -0.46205       -3.75471
| 95>    H        3.18625       -0.97486       -1.38916
| 96> *
| 97>
| 98>
| 99>                          ****END OF INPUT****
FINAL SINGLE POINT ENERGY     -1956.453351073158
FINAL SINGLE POINT ENERGY     -1956.459718870035
                    ***********************HURRAY********************
 Multiplicity           Mult            ....    1
 Number of Electrons    NEL             ....  322
 Basis Dimension        Dim             .... 1642
FINAL SINGLE POINT ENERGY     -1956.456347822376

ORBITAL ENERGIES
----------------

  NO   OCC          E(Eh)            E(eV)
   0   2.0000     -19.265507      -524.2411
   1   2.0000     -19.264894      -524.2244
   2   2.0000     -19.264769      -524.2210
   3   2.0000     -19.264731      -524.2200
   4   2.0000     -14.443241      -393.0206
   5   2.0000     -14.443166      -393.0185
   6   2.0000     -10.337606      -281.3006
   7   2.0000     -10.337114      -281.2872
   8   2.0000     -10.336716      -281.2763
   9   2.0000     -10.336625      -281.2739
  10   2.0000     -10.321128      -280.8522
  11   2.0000     -10.321098      -280.8514
  12   2.0000     -10.320460      -280.8340
  13   2.0000     -10.320322      -280.8303
  14   2.0000     -10.318658      -280.7850
  15   2.0000     -10.318508      -280.7809
  16   2.0000     -10.312096      -280.6064
  17   2.0000     -10.311881      -280.6005
  18   2.0000     -10.311739      -280.5967
  19   2.0000     -10.311669      -280.5948
  20   2.0000     -10.280232      -279.7393
  21   2.0000     -10.279839      -279.7286
  22   2.0000     -10.279214      -279.7116
  23   2.0000     -10.279104      -279.7086
  24   2.0000     -10.278636      -279.6959
  25   2.0000     -10.278556      -279.6937
  26   2.0000     -10.278489      -279.6919
  27   2.0000     -10.278428      -279.6903
  28   2.0000     -10.278341      -279.6879
  29   2.0000     -10.278307      -279.6869
  30   2.0000     -10.277389      -279.6620
  31   2.0000     -10.277129      -279.6549
  32   2.0000     -10.276885      -279.6482
  33   2.0000     -10.276581      -279.6400
  34   2.0000     -10.275293      -279.6049
  35   2.0000     -10.275243      -279.6036
  36   2.0000     -10.275145      -279.6009
  37   2.0000     -10.275062      -279.5986
  38   2.0000     -10.275023      -279.5976
  39   2.0000     -10.274735      -279.5897
  40   2.0000     -10.274607      -279.5863
  41   2.0000     -10.274520      -279.5839
  42   2.0000     -10.271425      -279.4997
  43   2.0000     -10.271138      -279.4919
  44   2.0000     -10.271003      -279.4882
  45   2.0000     -10.270969      -279.4873
  46   2.0000      -1.187660       -32.3179
  47   2.0000      -1.187099       -32.3026
  48   2.0000      -1.186830       -32.2953
  49   2.0000      -1.186755       -32.2932
  50   2.0000      -1.085840       -29.5472
  51   2.0000      -1.085755       -29.5449
  52   2.0000      -0.989623       -26.9290
  53   2.0000      -0.981230       -26.7006
  54   2.0000      -0.980970       -26.6936
  55   2.0000      -0.976551       -26.5733
  56   2.0000      -0.964708       -26.2510
  57   2.0000      -0.953802       -25.9543
  58   2.0000      -0.897156       -24.4129
  59   2.0000      -0.883365       -24.0376
  60   2.0000      -0.882066       -24.0022
  61   2.0000      -0.876686       -23.8558
  62   2.0000      -0.872208       -23.7340
  63   2.0000      -0.871372       -23.7112
  64   2.0000      -0.869874       -23.6705
  65   2.0000      -0.865006       -23.5380
  66   2.0000      -0.861601       -23.4454
  67   2.0000      -0.858463       -23.3600
  68   2.0000      -0.849567       -23.1179
  69   2.0000      -0.831306       -22.6210
  70   2.0000      -0.813896       -22.1472
  71   2.0000      -0.812463       -22.1082
  72   2.0000      -0.799693       -21.7607
  73   2.0000      -0.785962       -21.3871
  74   2.0000      -0.742939       -20.2164
  75   2.0000      -0.740784       -20.1578
  76   2.0000      -0.734753       -19.9937
  77   2.0000      -0.729074       -19.8391
  78   2.0000      -0.727274       -19.7901
  79   2.0000      -0.721396       -19.6302
  80   2.0000      -0.715682       -19.4747
  81   2.0000      -0.705592       -19.2001
  82   2.0000      -0.701481       -19.0883
  83   2.0000      -0.697297       -18.9744
  84   2.0000      -0.681034       -18.5319
  85   2.0000      -0.674087       -18.3429
  86   2.0000      -0.649304       -17.6685
  87   2.0000      -0.648410       -17.6441
  88   2.0000      -0.647838       -17.6286
  89   2.0000      -0.644979       -17.5508
  90   2.0000      -0.634771       -17.2730
  91   2.0000      -0.627714       -17.0810
  92   2.0000      -0.617760       -16.8101
  93   2.0000      -0.615085       -16.7373
  94   2.0000      -0.603127       -16.4119
  95   2.0000      -0.598872       -16.2961
  96   2.0000      -0.596609       -16.2346
  97   2.0000      -0.584231       -15.8977
  98   2.0000      -0.580563       -15.7979
  99   2.0000      -0.574638       -15.6367
 100   2.0000      -0.574223       -15.6254
 101   2.0000      -0.574147       -15.6233
 102   2.0000      -0.574043       -15.6205
 103   2.0000      -0.566956       -15.4277
 104   2.0000      -0.551737       -15.0135
 105   2.0000      -0.549615       -14.9558
 106   2.0000      -0.549265       -14.9463
 107   2.0000      -0.548770       -14.9328
 108   2.0000      -0.542222       -14.7546
 109   2.0000      -0.540727       -14.7139
 110   2.0000      -0.540203       -14.6997
 111   2.0000      -0.527081       -14.3426
 112   2.0000      -0.526453       -14.3255
 113   2.0000      -0.525289       -14.2938
 114   2.0000      -0.524891       -14.2830
 115   2.0000      -0.522580       -14.2201
 116   2.0000      -0.521436       -14.1890
 117   2.0000      -0.517994       -14.0953
 118   2.0000      -0.514647       -14.0043
 119   2.0000      -0.512878       -13.9561
 120   2.0000      -0.512115       -13.9354
 121   2.0000      -0.511283       -13.9127
 122   2.0000      -0.502241       -13.6667
 123   2.0000      -0.491316       -13.3694
 124   2.0000      -0.490085       -13.3359
 125   2.0000      -0.487637       -13.2693
 126   2.0000      -0.486476       -13.2377
 127   2.0000      -0.484962       -13.1965
 128   2.0000      -0.482756       -13.1365
 129   2.0000      -0.481654       -13.1065
 130   2.0000      -0.479553       -13.0493
 131   2.0000      -0.473601       -12.8873
 132   2.0000      -0.463089       -12.6013
 133   2.0000      -0.461817       -12.5667
 134   2.0000      -0.457726       -12.4554
 135   2.0000      -0.455802       -12.4030
 136   2.0000      -0.441618       -12.0170
 137   2.0000      -0.437420       -11.9028
 138   2.0000      -0.434106       -11.8126
 139   2.0000      -0.432871       -11.7790
 140   2.0000      -0.427476       -11.6322
 141   2.0000      -0.427082       -11.6215
 142   2.0000      -0.425464       -11.5775
 143   2.0000      -0.423420       -11.5218
 144   2.0000      -0.422313       -11.4917
 145   2.0000      -0.421885       -11.4801
 146   2.0000      -0.420960       -11.4549
 147   2.0000      -0.400154       -10.8887
 148   2.0000      -0.381424       -10.3791
 149   2.0000      -0.352995        -9.6055
 150   2.0000      -0.352784        -9.5997
 151   2.0000      -0.349548        -9.5117
 152   2.0000      -0.345222        -9.3940
 153   2.0000      -0.340456        -9.2643
 154   2.0000      -0.339914        -9.2495
 155   2.0000      -0.337865        -9.1938
 156   2.0000      -0.318073        -8.6552
 157   2.0000      -0.317195        -8.6313
 158   2.0000      -0.313686        -8.5358
 159   2.0000      -0.262557        -7.1445
 160   2.0000      -0.246397        -6.7048
 161   0.0000       0.038035         1.0350
 162   0.0000       0.043851         1.1932
 163   0.0000       0.044775         1.2184
 164   0.0000       0.064118         1.7447
 165   0.0000       0.064603         1.7579

MULLIKEN ATOMIC CHARGES
-----------------------
   0 C :   -0.232723
   1 O :   -0.303561
   2 C :    0.365836
   3 C :   -0.226481
   4 C :   -0.204056
   5 C :    0.013051
   6 N :    0.137209
   7 C :    0.000568
   8 C :   -0.214964
   9 C :   -0.212137
  10 C :    0.358297
  11 O :   -0.303427
  12 C :   -0.229014
  13 C :   -0.252359
  14 C :   -0.253025
  15 C :    0.098734
  16 C :   -0.245126
  17 C :   -0.236088
  18 C :    0.166515
  19 C :    0.175408
  20 C :   -0.236783
  21 C :   -0.246206
  22 C :    0.104530
  23 N :    0.130559
  24 C :    0.029161
  25 C :   -0.233341
  26 C :   -0.211077
  27 C :    0.361034
  28 O :   -0.303843
  29 C :   -0.238479
  30 C :   -0.259313
  31 C :   -0.263300
  32 C :   -0.000336
  33 C :   -0.220920
  34 C :   -0.208015
  35 C :    0.361391
  36 O :   -0.302249
  37 C :   -0.231013
  38 C :   -0.256961
  39 C :   -0.260629
  40 C :   -0.246697
  41 C :   -0.245664
  42 C :   -0.240674
  43 C :   -0.239044
  44 C :   -0.269685
  45 C :   -0.250514
  46 H :    0.157095
  47 H :    0.139161
  48 H :    0.134461
  49 H :    0.142841
  50 H :    0.166962
  51 H :    0.164590
  52 H :    0.148259
  53 H :    0.153319
  54 H :    0.137558
  55 H :    0.138394
  56 H :    0.162702
  57 H :    0.166496
  58 H :    0.156873
  59 H :    0.155374
  60 H :    0.155935
  61 H :    0.163316
  62 H :    0.166705
  63 H :    0.148430
  64 H :    0.157342
  65 H :    0.139476
  66 H :    0.139808
  67 H :    0.166249
  68 H :    0.168518
  69 H :    0.167843
  70 H :    0.148315
  71 H :    0.157108
  72 H :    0.134951
  73 H :    0.139660
  74 H :    0.169384
  75 H :    0.164327
  76 H :    0.162715
  77 H :    0.155967
  78 H :    0.149326
  79 H :    0.163091
  80 H :    0.164356
  81 H :    0.168502
Sum of atomic charges:   -0.0000000

LOEWDIN ATOMIC CHARGES
----------------------
   0 C :   -0.327906
   1 O :    0.223310
   2 C :   -0.262304
   3 C :   -0.121457
   4 C :   -0.107612
   5 C :   -0.194911
   6 N :    0.274689
   7 C :   -0.195152
   8 C :   -0.108644
   9 C :   -0.121480
  10 C :   -0.262718
  11 O :    0.223521
  12 C :   -0.327468
  13 C :   -0.144083
  14 C :   -0.108964
  15 C :   -0.180324
  16 C :   -0.119092
  17 C :   -0.107424
  18 C :   -0.123079
  19 C :   -0.122646
  20 C :   -0.107641
  21 C :   -0.119478
  22 C :   -0.180687
  23 N :    0.274301
  24 C :   -0.194679
  25 C :   -0.110275
  26 C :   -0.122072
  27 C :   -0.263246
  28 O :    0.222883
  29 C :   -0.328702
  30 C :   -0.144893
  31 C :   -0.109994
  32 C :   -0.195748
  33 C :   -0.108629
  34 C :   -0.121451
  35 C :   -0.262218
  36 O :    0.224326
  37 C :   -0.327410
  38 C :   -0.144514
  39 C :   -0.107932
  40 C :   -0.119093
  41 C :   -0.107350
  42 C :   -0.107526
  43 C :   -0.119260
  44 C :   -0.110232
  45 C :   -0.144426
  46 H :    0.118226
  47 H :    0.112128
  48 H :    0.111097
  49 H :    0.155802
  50 H :    0.160233
  51 H :    0.160597
  52 H :    0.156064
  53 H :    0.118097
  54 H :    0.111640
  55 H :    0.112061
  56 H :    0.156119
  57 H :    0.159590
  58 H :    0.157065
  59 H :    0.155606
  60 H :    0.155618
  61 H :    0.157656
  62 H :    0.160391
  63 H :    0.156134
  64 H :    0.118559
  65 H :    0.111900
  66 H :    0.112157
  67 H :    0.156032
  68 H :    0.159816
  69 H :    0.160722
  70 H :    0.156233
  71 H :    0.118733
  72 H :    0.111057
  73 H :    0.112352
  74 H :    0.156309
  75 H :    0.159685
  76 H :    0.157725
  77 H :    0.155621
  78 H :    0.154835
  79 H :    0.157705
  80 H :    0.159932
  81 H :    0.156194

  Mayer bond orders larger than 0.100000
B(  0-C ,  1-O ) :   0.9275 B(  0-C , 46-H ) :   0.9688 B(  0-C , 47-H ) :   0.9673
B(  0-C , 48-H ) :   0.9690 B(  1-O ,  2-C ) :   1.1071 B(  2-C ,  3-C ) :   1.3214
B(  2-C , 45-C ) :   1.2936 B(  3-C ,  4-C ) :   1.4658 B(  3-C , 49-H ) :   1.0007
B(  4-C ,  5-C ) :   1.3780 B(  4-C , 50-H ) :   0.9799 B(  5-C ,  6-N ) :   0.9494
B(  5-C , 44-C ) :   1.4313 B(  6-N ,  7-C ) :   0.9464 B(  6-N , 15-C ) :   1.0742
B(  7-C ,  8-C ) :   1.3675 B(  7-C , 14-C ) :   1.4564 B(  8-C ,  9-C ) :   1.4740
B(  8-C , 51-H ) :   0.9794 B(  9-C , 10-C ) :   1.3315 B(  9-C , 52-H ) :   0.9911
B( 10-C , 11-O ) :   1.1059 B( 10-C , 13-C ) :   1.2881 B( 11-O , 12-C ) :   0.9270
B( 12-C , 53-H ) :   0.9706 B( 12-C , 54-H ) :   0.9677 B( 12-C , 55-H ) :   0.9680
B( 13-C , 14-C ) :   1.4174 B( 13-C , 56-H ) :   0.9578 B( 14-C , 57-H ) :   0.9603
B( 15-C , 16-C ) :   1.3575 B( 15-C , 43-C ) :   1.3550 B( 16-C , 17-C ) :   1.4729
B( 16-C , 58-H ) :   0.9767 B( 17-C , 18-C ) :   1.3553 B( 17-C , 59-H ) :   0.9653
B( 18-C , 19-C ) :   0.8987 B( 18-C , 42-C ) :   1.3539 B( 19-C , 20-C ) :   1.3578
B( 19-C , 41-C ) :   1.3557 B( 20-C , 21-C ) :   1.4711 B( 20-C , 60-H ) :   0.9652
B( 21-C , 22-C ) :   1.3535 B( 21-C , 61-H ) :   0.9758 B( 22-C , 23-N ) :   1.0725
B( 22-C , 40-C ) :   1.3552 B( 23-N , 24-C ) :   0.9658 B( 23-N , 32-C ) :   0.9317
B( 24-C , 25-C ) :   1.3553 B( 24-C , 31-C ) :   1.4395 B( 25-C , 26-C ) :   1.4761
B( 25-C , 62-H ) :   0.9814 B( 26-C , 27-C ) :   1.3280 B( 26-C , 63-H ) :   0.9920
B( 27-C , 28-O ) :   1.1060 B( 27-C , 30-C ) :   1.2900 B( 28-O , 29-C ) :   0.9259
B( 29-C , 64-H ) :   0.9693 B( 29-C , 65-H ) :   0.9668 B( 29-C , 66-H ) :   0.9679
B( 30-C , 31-C ) :   1.4172 B( 30-C , 67-H ) :   0.9552 B( 31-C , 68-H ) :   0.9618
B( 32-C , 33-C ) :   1.3722 B( 32-C , 39-C ) :   1.4514 B( 33-C , 34-C ) :   1.4720
B( 33-C , 69-H ) :   0.9807 B( 34-C , 35-C ) :   1.3235 B( 34-C , 70-H ) :   0.9929
B( 35-C , 36-O ) :   1.1091 B( 35-C , 38-C ) :   1.2897 B( 36-O , 37-C ) :   0.9262
B( 37-C , 71-H ) :   0.9690 B( 37-C , 72-H ) :   0.9674 B( 37-C , 73-H ) :   0.9683
B( 38-C , 39-C ) :   1.4147 B( 38-C , 74-H ) :   0.9559 B( 39-C , 75-H ) :   0.9654
B( 40-C , 41-C ) :   1.4753 B( 40-C , 76-H ) :   0.9773 B( 41-C , 77-H ) :   0.9665
B( 42-C , 43-C ) :   1.4731 B( 42-C , 78-H ) :   0.9706 B( 43-C , 79-H ) :   0.9727
B( 44-C , 45-C ) :   1.4224 B( 44-C , 80-H ) :   0.9647 B( 45-C , 81-H ) :   0.9522

FINAL SINGLE POINT ENERGY     -1956.459720475061

DIPOLE MOMENT
-------------
                                X             Y             Z
Electronic contribution:      3.42359       2.67441       1.47745
Nuclear contribution   :     -4.18872      -3.30082      -1.80148
                        -----------------------------------------
Total Dipole Moment    :     -0.76513      -0.62641      -0.32404
                        -----------------------------------------
Magnitude (a.u.)       :      1.04059
Magnitude (Debye)      :      2.64496

Rotational constants in cm-1:     0.003003     0.000679     0.000649
Rotational constants in MHz :    90.017426    20.349481    19.466819

                             ****ORCA TERMINATED NORMALLY****
TOTAL RUN TIME: 5 days 6 hours 25 minutes 38 seconds 454 msec
FINAL SINGLE POINT ENERGY     -1956.457447171662
FINAL SINGLE POINT ENERGY     -1956.458382964117
FINAL SINGLE POINT ENERGY     -1956.459097621093
Dispersion correction           -0.040940689
FINAL SINGLE POINT ENERGY     -1956.459539565732
Dispersion correction            ... done
Dispersion correction           -0.040955550
FINAL SINGLE POINT ENERGY     -1956.459639931908
Dispersion correction            ... done
Dispersion correction           -0.040941936
FINAL SINGLE POINT ENERGY     -1956.459691449362
Dispersion correction            ... done

CARTESIAN COORDINATES (ANGSTROEM)
---------------------------------
  C      1.991963   -0.169066    0.716494
  O      3.078824    0.659106    0.353941
  C      3.322935    0.845337   -0.968589
  C      4.400462    1.671420   -1.283601
  C      4.733968    1.910563   -2.600149
  C      3.990099    1.348183   -3.637967
  N      4.329628    1.616660   -4.987337
  C      4.552692    2.959643   -5.380061
  C      5.667993    3.299676   -6.147184
  C      5.891877    4.606213   -6.525478
  C      5.016109    5.615707   -6.126747
  O      5.325410    6.872539   -6.536196
  C      4.459205    7.924386   -6.158041
  C      3.910722    5.291179   -5.351492
  C      3.682205    3.967412   -4.994426
  C      4.397035    0.579265   -5.929533
  C      4.052766    0.797559   -7.263994
  C      4.140063   -0.225183   -8.191796
  C      4.556551   -1.505045   -7.830429
  C      4.650309   -2.596351   -8.829156
  C      3.687526   -2.754177   -9.824878
  C      3.776741   -3.765623  -10.764174
  C      4.835843   -4.674187  -10.733511
  N      4.928101   -5.706557  -11.679802
  C      3.755270   -6.293328  -12.216524
  C      2.723802   -6.716384  -11.377556
  C      1.580284   -7.285433  -11.897251
  C      1.447587   -7.470195  -13.272899
  O      0.292092   -8.047367  -13.690593
  C      0.116176   -8.250633  -15.078951
  C      2.475575   -7.068657  -14.116208
  C      3.613633   -6.474830  -13.583634
  C      6.191908   -6.157429  -12.133218
  C      7.176866   -5.248100  -12.521603
  C      8.406307   -5.686663  -12.966318
  C      8.677086   -7.051138  -13.058270
  O      9.910353   -7.387686  -13.515320
  C     10.220996   -8.762190  -13.634092
  C      7.698330   -7.965577  -12.690438
  C      6.471009   -7.512814  -12.221421
  C      5.800549   -4.528332   -9.735591
  C      5.707602   -3.504813   -8.810022
  C      4.887961   -1.717061   -6.492700
  C      4.818348   -0.699585   -5.559080
  C      2.910284    0.539925   -3.316731
  C      2.579764    0.273494   -1.993752
  H      1.972578   -0.185151    1.803897
  H      2.126397   -1.188332    0.342473
  H      1.044577    0.231282    0.343916
  H      4.974789    2.110283   -0.476880
  H      5.580145    2.545178   -2.835353
  H      6.362000    2.525248   -6.451125
  H      6.756403    4.869845   -7.122366
  H      4.885653    8.833113   -6.576098
  H      4.400687    8.020496   -5.069862
  H      3.454003    7.776903   -6.563458
  H      3.213101    6.050081   -5.025627
  H      2.812504    3.721215   -4.396904
  H      3.722798    1.779666   -7.579143
  H      3.884115   -0.016096   -9.224355
  H      2.842585   -2.075664   -9.866254
  H      3.013744   -3.858173  -11.527428
  H      2.823015   -6.589310  -10.305827
  H      0.777714   -7.609920  -11.246274
  H     -0.861203   -8.712600  -15.195980
  H      0.882477   -8.918870  -15.482591
  H      0.136248   -7.303800  -15.625844
  H      2.403352   -7.198528  -15.187296
  H      4.406761   -6.154695  -14.248873
  H      6.972108   -4.185262  -12.468788
  H      9.171054   -4.980478  -13.265884
  H     11.239017   -8.810674  -14.012695
  H      9.548738   -9.261647  -14.338024
  H     10.170867   -9.266914  -12.665075
  H      7.876900   -9.030365  -12.750601
  H      5.716771   -8.232572  -11.926219
  H      6.633784   -5.218887   -9.689836
  H      6.482944   -3.408710   -8.058101
  H      5.205357   -2.702013   -6.169090
  H      5.088275   -0.897451   -4.529223
  H      2.318106    0.100859   -4.110834
  H      1.733898   -0.365933   -1.782211
