                         Program Version 4.2.1 -  RELEASE  -
|  1> # avogadro generated ORCA input file
|  2> # Basic Mode
|  3> #
|  4> ! wB97X-D3 OPT def2-TZVP def2/J CPCM
|  5> %cpcm
|  6>   epsilon 3
|  7> end
|  8> %pal
|  9>  nprocs 4
| 10> end
| 11>
| 12> * xyz 0 1
| 13>    C        2.69581        6.93099        0.68865
| 14>    C        1.38458        7.29440        0.95731
| 15>    C        3.02440        5.59161        0.49358
| 16>    H        3.46332        7.69197        0.62535
| 17>    C        0.41064        6.30709        1.05254
| 18>    H        1.12696        8.33404        1.11363
| 19>    C        2.01806        4.59213        0.55161
| 20>    H        4.05725        5.38747        0.26742
| 21>    N        0.72819        4.98981        0.86462
| 22>    H       -0.60002        6.60359        1.30807
| 23>    C        2.27895        3.25942        0.31727
| 24>    C       -0.31197        3.98403        1.12869
| 25>    C       -0.15918        2.86340        0.14245
| 26>    H       -1.33751        4.41519        1.10405
| 27>    H       -0.13961        3.55424        2.14019
| 28>    N        1.22441        2.36804        0.20204
| 29>    H       -0.33816        3.29179       -0.86849
| 30>    H       -0.90766        2.05864        0.31674
| 31>    C        3.59643        2.74932        0.17926
| 32>    C        1.43545        1.02833        0.02311
| 33>    C        3.80523        1.38471       -0.00570
| 34>    H        4.48271        3.35760        0.24352
| 35>    C        2.72481        0.51764       -0.07260
| 36>    H        0.60149        0.34337       -0.07681
| 37>    H        4.81258        0.99750       -0.09214
| 38>    H        2.88377       -0.54277       -0.22059
| 39> *
| 40>
| 41>
| 42>                          ****END OF INPUT****
 Total Charge           Charge          ....    0
 Multiplicity           Mult            ....    1
 Number of Electrons    NEL             ....   98
Dispersion correction           -0.009649335
FINAL SINGLE POINT ENERGY      -573.965661829432
Dispersion correction            ... done
Dispersion correction           -0.009665339
FINAL SINGLE POINT ENERGY      -573.984120940334
Dispersion correction            ... done
Dispersion correction           -0.009674352
FINAL SINGLE POINT ENERGY      -573.989142343102
Dispersion correction            ... done
FINAL SINGLE POINT ENERGY      -573.989767085994
FINAL SINGLE POINT ENERGY      -573.989951576139
FINAL SINGLE POINT ENERGY      -573.990012320767
FINAL SINGLE POINT ENERGY      -573.990063316997
FINAL SINGLE POINT ENERGY      -573.990098542071
FINAL SINGLE POINT ENERGY      -573.990126738025
Dispersion correction            ... done
Dispersion correction           -0.009696283
FINAL SINGLE POINT ENERGY      -573.990132903364
Dispersion correction            ... done
Dispersion correction           -0.009697470
FINAL SINGLE POINT ENERGY      -573.990133702915
Dispersion correction            ... done
                    ***********************HURRAY********************

CARTESIAN COORDINATES (ANGSTROEM)
---------------------------------
  C      2.709037    6.922903    0.774932
  C      1.322863    7.308411    0.917251
  C      3.043737    5.630244    0.628424
  H      3.481164    7.682863    0.791984
  C      0.402803    6.330886    0.994996
  H      1.024822    8.344062    0.987561
  C      2.041441    4.580831    0.588772
  H      4.083155    5.351763    0.523697
  N      0.724501    5.006394    0.906601
  H     -0.649972    6.533232    1.151477
  C      2.290427    3.277990    0.277588
  C     -0.258692    3.983015    1.156201
  C     -0.113878    2.885843    0.106708
  H     -1.253477    4.425446    1.110647
  H     -0.119266    3.545247    2.151165
  N      1.221820    2.349339    0.165311
  H     -0.316609    3.309809   -0.883256
  H     -0.829073    2.084690    0.291314
  C      3.608262    2.717309    0.040802
  C      1.447335    1.005002    0.084013
  C      3.799956    1.394522   -0.093521
  H      4.451740    3.391908   -0.014656
  C      2.681217    0.481182   -0.023733
  H      0.553637    0.392360    0.093703
  H      4.797728    1.007149   -0.260559
  H      2.816251   -0.588851   -0.083652

 Multiplicity           Mult            ....    1
 Number of Electrons    NEL             ....   98
 Basis Dimension        Dim             ....  506

ORBITAL ENERGIES
----------------

  NO   OCC          E(Eh)            E(eV)
   0   2.0000     -14.455839      -393.3634
   1   2.0000     -14.455631      -393.3577
   2   2.0000     -10.314659      -280.6761
   3   2.0000     -10.314275      -280.6657
   4   2.0000     -10.312564      -280.6191
   5   2.0000     -10.312514      -280.6178
   6   2.0000     -10.301893      -280.3287
   7   2.0000     -10.301186      -280.3095
   8   2.0000     -10.272168      -279.5199
   9   2.0000     -10.272102      -279.5181
  10   2.0000     -10.271160      -279.4925
  11   2.0000     -10.271000      -279.4881
  12   2.0000     -10.256058      -279.0815
  13   2.0000     -10.255764      -279.0735
  14   2.0000      -1.110053       -30.2061
  15   2.0000      -1.073322       -29.2066
  16   2.0000      -0.947131       -25.7728
  17   2.0000      -0.918540       -24.9947
  18   2.0000      -0.914382       -24.8816
  19   2.0000      -0.864595       -23.5268
  20   2.0000      -0.853086       -23.2136
  21   2.0000      -0.776031       -21.1169
  22   2.0000      -0.774448       -21.0738
  23   2.0000      -0.748505       -20.3679
  24   2.0000      -0.717393       -19.5213
  25   2.0000      -0.683821       -18.6077
  26   2.0000      -0.649577       -17.6759
  27   2.0000      -0.615539       -16.7497
  28   2.0000      -0.614344       -16.7171
  29   2.0000      -0.592626       -16.1262
  30   2.0000      -0.584031       -15.8923
  31   2.0000      -0.550629       -14.9834
  32   2.0000      -0.550186       -14.9713
  33   2.0000      -0.545933       -14.8556
  34   2.0000      -0.537191       -14.6177
  35   2.0000      -0.529802       -14.4166
  36   2.0000      -0.520066       -14.1517
  37   2.0000      -0.492409       -13.3991
  38   2.0000      -0.491400       -13.3717
  39   2.0000      -0.467236       -12.7141
  40   2.0000      -0.456207       -12.4140
  41   2.0000      -0.449644       -12.2354
  42   2.0000      -0.444220       -12.0879
  43   2.0000      -0.424416       -11.5490
  44   2.0000      -0.390842       -10.6353
  45   2.0000      -0.377749       -10.2791
  46   2.0000      -0.366170        -9.9640
  47   2.0000      -0.313150        -8.5212
  48   2.0000      -0.202020        -5.4972
  49   0.0000       0.051458         1.4002
  50   0.0000       0.051936         1.4132
  51   0.0000       0.100750         2.7415
  52   0.0000       0.124290         3.3821
  53   0.0000       0.143295         3.8993

MULLIKEN ATOMIC CHARGES
-----------------------
   0 C :   -0.141935
   1 C :   -0.290991
   2 C :   -0.285174
   3 H :    0.142978
   4 C :   -0.052341
   5 H :    0.155193
   6 C :    0.089869
   7 H :    0.146919
   8 N :   -0.049143
   9 H :    0.167492
  10 C :    0.091334
  11 C :   -0.151058
  12 C :   -0.142141
  13 H :    0.138630
  14 H :    0.128544
  15 N :   -0.047884
  16 H :    0.127142
  17 H :    0.138891
  18 C :   -0.272513
  19 C :   -0.057009
  20 C :   -0.149543
  21 H :    0.136064
  22 C :   -0.293949
  23 H :    0.166133
  24 H :    0.148341
  25 H :    0.156154
Sum of atomic charges:   -0.0000000

LOEWDIN ATOMIC CHARGES
----------------------
   0 C :   -0.167697
   1 C :   -0.221681
   2 C :   -0.133767
   3 H :    0.147385
   4 C :   -0.181945
   5 H :    0.146368
   6 C :   -0.180140
   7 H :    0.152641
   8 N :    0.237233
   9 H :    0.152006
  10 C :   -0.179816
  11 C :   -0.237032
  12 C :   -0.236472
  13 H :    0.145597
  14 H :    0.141160
  15 N :    0.237105
  16 H :    0.140979
  17 H :    0.145583
  18 C :   -0.132862
  19 C :   -0.182492
  20 C :   -0.168358
  21 H :    0.151816
  22 C :   -0.222288
  23 H :    0.152011
  24 H :    0.148115
  25 H :    0.146550

  Mayer bond orders larger than 0.100000
B(  0-C ,  1-C ) :   1.0740 B(  0-C ,  2-C ) :   1.8168 B(  0-C ,  3-H ) :   0.9703
B(  1-C ,  4-C ) :   1.7319 B(  1-C ,  5-H ) :   0.9765 B(  2-C ,  6-C ) :   1.0900
B(  2-C ,  7-H ) :   0.9660 B(  4-C ,  8-N ) :   1.1922 B(  4-C ,  9-H ) :   0.9259
B(  6-C ,  8-N ) :   1.0391 B(  6-C , 10-C ) :   1.5991 B(  8-N , 11-C ) :   0.9498
B( 10-C , 15-N ) :   1.0363 B( 10-C , 18-C ) :   1.0824 B( 11-C , 12-C ) :   0.9790
B( 11-C , 13-H ) :   0.9586 B( 11-C , 14-H ) :   0.9630 B( 12-C , 15-N ) :   0.9491
B( 12-C , 16-H ) :   0.9639 B( 12-C , 17-H ) :   0.9584 B( 15-N , 19-C ) :   1.1886
B( 18-C , 20-C ) :   1.8253 B( 18-C , 21-H ) :   0.9716 B( 19-C , 22-C ) :   1.7307
B( 19-C , 23-H ) :   0.9267 B( 20-C , 22-C ) :   1.0720 B( 20-C , 24-H ) :   0.9668
B( 22-C , 25-H ) :   0.9777

Dispersion correction           -0.009698076
FINAL SINGLE POINT ENERGY      -573.990134414999

DIPOLE MOMENT
-------------
                                X             Y             Z
Electronic contribution:      1.35861       0.28672      -0.10737
Nuclear contribution   :     -2.72246      -0.57205       0.21784
                        -----------------------------------------
Total Dipole Moment    :     -1.36385      -0.28533       0.11047
                        -----------------------------------------
Magnitude (a.u.)       :      1.39774
Magnitude (Debye)      :      3.55278

Rotational constants in cm-1:     0.052226     0.018624     0.013957
Rotational constants in MHz :  1565.694949   558.337987   418.417276

                             ****ORCA TERMINATED NORMALLY****
TOTAL RUN TIME: 0 days 5 hours 5 minutes 32 seconds 619 msec
