                         Program Version 4.2.1 -  RELEASE  -
|  1> # avogadro generated ORCA input file
|  2> # Basic Mode
|  3> #
|  4> ! wB97X-D3 OPT def2-TZVP def2/J CPCM
|  5> %cpcm
|  6>   epsilon 3
|  7> end
|  8> %pal
|  9>  nprocs 8
| 10> end
| 11>
| 12> * xyz 0 1
| 13>    O        1.51120       -0.25959        0.33565
| 14>    C        2.73033       -0.24056        0.23744
| 15>    C        3.44568        1.05737        0.13897
| 16>    C        2.73404        2.27157        0.15735
| 17>    C        3.41049        3.48959        0.06461
| 18>    C        4.80055        3.51124       -0.04723
| 19>    C        5.52048        2.31495       -0.06684
| 20>    C        4.85297        1.07926        0.02574
| 21>    C        5.61474       -0.19570        0.00530
| 22>    O        6.83388       -0.17649       -0.09280
| 23>    C        4.89914       -1.49386        0.10371
| 24>    C        5.61111       -2.70766        0.08550
| 25>    C        4.93596       -3.92926        0.17774
| 26>    S        5.85608       -5.46882        0.15595
| 27>    O        5.05696       -6.60233       -0.50464
| 28>    O        7.07860       -5.38930       -0.77079
| 29>    O        6.44071       -6.11972        1.63236
| 30>    C        3.54358       -3.94705        0.29127
| 31>    C        2.82513       -2.75033        0.31048
| 32>    C        3.49238       -1.51545        0.21703
| 33>    H        1.74671       -2.79201        0.39891
| 34>    H        6.69069       -2.70768        0.00003
| 35>    H        6.59894        2.35729       -0.15442
| 36>    H        5.32184        4.45714       -0.11891
| 37>    H        1.65467        2.28028        0.24340
| 38>    H        2.85544        4.41874        0.07952
| 39>    H        3.01373       -4.88819        0.36520
| 40>   Na        7.55987       -8.51763       -0.11909
| 41> *
| 42>
| 43>
| 44>                          ****END OF INPUT****
 Total Charge           Charge          ....    0
 Multiplicity           Mult            ....    1
 Number of Electrons    NEL             ....  158
Dispersion correction           -0.015088108
FINAL SINGLE POINT ENERGY     -1474.442255237085
Dispersion correction            ... done
Dispersion correction           -0.014973733
FINAL SINGLE POINT ENERGY     -1474.484939377232
Dispersion correction            ... done
Dispersion correction           -0.014848785
FINAL SINGLE POINT ENERGY     -1474.513318240621
Dispersion correction            ... done
FINAL SINGLE POINT ENERGY     -1474.484176985574
FINAL SINGLE POINT ENERGY     -1474.525625395215
FINAL SINGLE POINT ENERGY     -1474.527020159358
FINAL SINGLE POINT ENERGY     -1474.527963937681
FINAL SINGLE POINT ENERGY     -1474.528816072453
FINAL SINGLE POINT ENERGY     -1474.529828402545
FINAL SINGLE POINT ENERGY     -1474.530747648166
FINAL SINGLE POINT ENERGY     -1474.501616886517
FINAL SINGLE POINT ENERGY     -1474.531458327345
FINAL SINGLE POINT ENERGY     -1474.531462730469
FINAL SINGLE POINT ENERGY     -1474.531590828230
FINAL SINGLE POINT ENERGY     -1474.531635108410
FINAL SINGLE POINT ENERGY     -1474.531638773209
FINAL SINGLE POINT ENERGY     -1474.531640931135
Dispersion correction            ... done
Dispersion correction           -0.012787748
FINAL SINGLE POINT ENERGY     -1474.531642744920
Dispersion correction            ... done
Dispersion correction           -0.012787638
FINAL SINGLE POINT ENERGY     -1474.531642912599
Dispersion correction            ... done
                    ***********************HURRAY********************

CARTESIAN COORDINATES (ANGSTROEM)
---------------------------------
  O      1.526563   -0.330093    0.320808
  C      2.734863   -0.304044    0.225165
  C      3.477074    0.983698    0.148103
  C      2.764109    2.175536    0.195928
  C      3.430326    3.386112    0.127254
  C      4.814810    3.413681    0.010806
  C      5.531057    2.230877   -0.037542
  C      4.868355    1.011424    0.030934
  C      5.663244   -0.246369   -0.022958
  O      6.870620   -0.224667   -0.126197
  C      4.920592   -1.535826    0.058314
  C      5.635246   -2.723507    0.011311
  C      4.961453   -3.929458    0.093797
  S      5.894574   -5.438309    0.076621
  O      4.962832   -6.520674   -0.223590
  O      6.924748   -5.297324   -0.938545
  O      6.464990   -5.596919    1.412046
  C      3.579901   -3.966570    0.217310
  C      2.867283   -2.781766    0.259219
  C      3.529806   -1.564514    0.180952
  H      1.789098   -2.788654    0.351595
  H      6.712120   -2.692698   -0.093275
  H      6.609633    2.235508   -0.128857
  H      5.335359    4.361826   -0.042799
  H      1.686307    2.136363    0.287978
  H      2.870937    4.312667    0.165062
  H      3.071612   -4.919956    0.273149
  Na     7.138387   -7.850545    0.318851

 Multiplicity           Mult            ....    1
 Number of Electrons    NEL             ....  158
 Basis Dimension        Dim             ....  700

ORBITAL ENERGIES
----------------

  NO   OCC          E(Eh)            E(eV)
   0   2.0000     -89.133198     -2425.4376
   1   2.0000     -38.578922     -1049.7858
   2   2.0000     -19.237886      -523.4895
   3   2.0000     -19.236773      -523.4592
   4   2.0000     -19.207683      -522.6676
   5   2.0000     -19.206438      -522.6338
   6   2.0000     -19.205310      -522.6030
   7   2.0000     -10.385976      -282.6168
   8   2.0000     -10.385223      -282.5963
   9   2.0000     -10.317203      -280.7454
  10   2.0000     -10.310632      -280.5666
  11   2.0000     -10.309622      -280.5391
  12   2.0000     -10.307268      -280.4750
  13   2.0000     -10.306742      -280.4607
  14   2.0000     -10.303285      -280.3667
  15   2.0000     -10.302745      -280.3519
  16   2.0000     -10.298738      -280.2429
  17   2.0000     -10.297004      -280.1957
  18   2.0000     -10.296521      -280.1826
  19   2.0000     -10.295893      -280.1655
  20   2.0000     -10.295752      -280.1617
  21   2.0000      -8.196415      -223.0358
  22   2.0000      -6.149250      -167.3296
  23   2.0000      -6.149024      -167.3234
  24   2.0000      -6.148817      -167.3178
  25   2.0000      -2.343484       -63.7694
  26   2.0000      -1.267153       -34.4810
  27   2.0000      -1.264263       -34.4023
  28   2.0000      -1.264064       -34.3969
  29   2.0000      -1.241206       -33.7749
  30   2.0000      -1.180824       -32.1319
  31   2.0000      -1.178520       -32.0691
  32   2.0000      -1.098734       -29.8981
  33   2.0000      -1.096120       -29.8269
  34   2.0000      -1.015381       -27.6299
  35   2.0000      -1.002590       -27.2819
  36   2.0000      -0.932281       -25.3686
  37   2.0000      -0.898308       -24.4442
  38   2.0000      -0.890836       -24.2409
  39   2.0000      -0.888201       -24.1692
  40   2.0000      -0.804466       -21.8906
  41   2.0000      -0.786726       -21.4079
  42   2.0000      -0.760187       -20.6857
  43   2.0000      -0.727750       -19.8031
  44   2.0000      -0.708623       -19.2826
  45   2.0000      -0.690466       -18.7885
  46   2.0000      -0.665073       -18.0976
  47   2.0000      -0.645069       -17.5532
  48   2.0000      -0.613560       -16.6958
  49   2.0000      -0.601001       -16.3541
  50   2.0000      -0.590877       -16.0786
  51   2.0000      -0.585100       -15.9214
  52   2.0000      -0.566174       -15.4064
  53   2.0000      -0.560014       -15.2388
  54   2.0000      -0.558561       -15.1992
  55   2.0000      -0.557378       -15.1670
  56   2.0000      -0.550604       -14.9827
  57   2.0000      -0.546306       -14.8657
  58   2.0000      -0.543167       -14.7803
  59   2.0000      -0.535837       -14.5809
  60   2.0000      -0.518190       -14.1007
  61   2.0000      -0.510545       -13.8926
  62   2.0000      -0.499499       -13.5921
  63   2.0000      -0.474330       -12.9072
  64   2.0000      -0.471636       -12.8339
  65   2.0000      -0.466102       -12.6833
  66   2.0000      -0.454150       -12.3580
  67   2.0000      -0.452572       -12.3151
  68   2.0000      -0.450254       -12.2520
  69   2.0000      -0.416444       -11.3320
  70   2.0000      -0.410456       -11.1691
  71   2.0000      -0.405122       -11.0239
  72   2.0000      -0.379613       -10.3298
  73   2.0000      -0.368061       -10.0155
  74   2.0000      -0.363095        -9.8803
  75   2.0000      -0.361065        -9.8251
  76   2.0000      -0.358485        -9.7549
  77   2.0000      -0.358051        -9.7431
  78   2.0000      -0.353454        -9.6180
  79   0.0000      -0.041537        -1.1303
  80   0.0000       0.002118         0.0576
  81   0.0000       0.024718         0.6726
  82   0.0000       0.039557         1.0764
  83   0.0000       0.055055         1.4981

MULLIKEN ATOMIC CHARGES
-----------------------
   0 O :   -0.370162
   1 C :    0.346341
   2 C :   -0.018435
   3 C :   -0.180282
   4 C :   -0.117958
   5 C :   -0.117804
   6 C :   -0.187969
   7 C :   -0.015760
   8 C :    0.347608
   9 O :   -0.368872
  10 C :    0.010213
  11 C :   -0.287656
  12 C :    0.162008
  13 S :    0.838862
  14 O :   -0.588489
  15 O :   -0.556486
  16 O :   -0.572913
  17 C :   -0.160217
  18 C :   -0.183624
  19 C :   -0.005971
  20 H :    0.167350
  21 H :    0.176483
  22 H :    0.167097
  23 H :    0.162747
  24 H :    0.166715
  25 H :    0.161678
  26 H :    0.179691
  27 Na:    0.845802
Sum of atomic charges:   -0.0000000

LOEWDIN ATOMIC CHARGES
----------------------
   0 O :    0.125022
   1 C :   -0.225504
   2 C :   -0.076827
   3 C :   -0.072662
   4 C :   -0.114655
   5 C :   -0.114322
   6 C :   -0.072297
   7 C :   -0.075972
   8 C :   -0.225917
   9 O :    0.127079
  10 C :   -0.070721
  11 C :   -0.053165
  12 C :   -0.233358
  13 S :    0.504976
  14 O :   -0.288628
  15 O :   -0.298847
  16 O :   -0.290616
  17 C :   -0.096287
  18 C :   -0.065175
  19 C :   -0.068004
  20 H :    0.164177
  21 H :    0.168771
  22 H :    0.162294
  23 H :    0.156595
  24 H :    0.162109
  25 H :    0.156466
  26 H :    0.162955
  27 Na:    0.552510

  Mayer bond orders larger than 0.100000
B(  0-O ,  1-C ) :   2.0508 B(  0-O ,  2-C ) :  -0.1132 B(  0-O , 19-C ) :  -0.1216
B(  1-C ,  2-C ) :   0.9976 B(  1-C , 19-C ) :   0.9852 B(  2-C ,  3-C ) :   1.3726
B(  2-C ,  7-C ) :   1.3864 B(  3-C ,  4-C ) :   1.3972 B(  3-C , 24-H ) :   0.9652
B(  4-C ,  5-C ) :   1.3598 B(  4-C , 25-H ) :   0.9838 B(  5-C ,  6-C ) :   1.3986
B(  5-C , 23-H ) :   0.9830 B(  6-C ,  7-C ) :   1.3758 B(  6-C , 22-H ) :   0.9645
B(  7-C ,  8-C ) :   1.0026 B(  7-C ,  9-O ) :  -0.1127 B(  8-C ,  9-O ) :   2.0508
B(  8-C , 10-C ) :   0.9764 B(  9-O , 10-C ) :  -0.1253 B( 10-C , 11-C ) :   1.3981
B( 10-C , 19-C ) :   1.3935 B( 11-C , 12-C ) :   1.3704 B( 11-C , 21-H ) :   0.9361
B( 12-C , 13-S ) :   0.8867 B( 12-C , 17-C ) :   1.3346 B( 13-S , 14-O ) :   1.6684
B( 13-S , 15-O ) :   1.7069 B( 13-S , 16-O ) :   1.6742 B( 17-C , 18-C ) :   1.3979
B( 17-C , 26-H ) :   0.9580 B( 18-C , 19-C ) :   1.3671 B( 18-C , 20-H ) :   0.9685

Dispersion correction           -0.012787650
FINAL SINGLE POINT ENERGY     -1474.531642743471

DIPOLE MOMENT
-------------
                                X             Y             Z
Electronic contribution:      8.93307     -24.51929       0.56293
Nuclear contribution   :     -7.79483      22.15494      -0.18079
                        -----------------------------------------
Total Dipole Moment    :      1.13824      -2.36435       0.38215
                        -----------------------------------------
Magnitude (a.u.)       :      2.65175
Magnitude (Debye)      :      6.74021

Rotational constants in cm-1:     0.028029     0.004319     0.003824
Rotational constants in MHz :   840.286032   129.476729   114.628346

                             ****ORCA TERMINATED NORMALLY****
TOTAL RUN TIME: 0 days 14 hours 31 minutes 49 seconds 185 msec
