                         Program Version 4.2.1 -  RELEASE  -
|  1> # avogadro generated ORCA input file
|  2> # Basic Mode
|  3> #
|  4> ! wB97X-D3 OPT def2-TZVP def2/J CPCM
|  5> %cpcm
|  6>   epsilon 3
|  7> end
|  8> %pal
|  9>  nprocs 4
| 10> end
| 11>
| 12> * xyz 0 1
| 13>    I        1.07650        0.08794       -0.04594
| 14>    I        3.72850        0.08794       -0.04594
| 15> *
| 16>
| 17>
| 18>                          ****END OF INPUT****
 Total Charge           Charge          ....    0
 Multiplicity           Mult            ....    1
 Number of Electrons    NEL             ....   50
Dispersion correction           -0.000014456
FINAL SINGLE POINT ENERGY      -595.548342394353
Dispersion correction            ... done
Dispersion correction           -0.000014835
FINAL SINGLE POINT ENERGY      -595.548346074860
Dispersion correction            ... done
Dispersion correction           -0.000014665
FINAL SINGLE POINT ENERGY      -595.548348481096
Dispersion correction            ... done
                    ***********************HURRAY********************

CARTESIAN COORDINATES (ANGSTROEM)
---------------------------------
  I      1.074132    0.087940   -0.045940
  I      3.730868    0.087940   -0.045940

 Multiplicity           Mult            ....    1
 Number of Electrons    NEL             ....   50
 Basis Dimension        Dim             ....  100

ORBITAL ENERGIES
----------------

  NO   OCC          E(Eh)            E(eV)
   0   2.0000      -6.979780      -189.9295
   1   2.0000      -6.979776      -189.9293
   2   2.0000      -5.006675      -136.2385
   3   2.0000      -5.006504      -136.2339
   4   2.0000      -4.990269      -135.7921
   5   2.0000      -4.990269      -135.7921
   6   2.0000      -4.990255      -135.7917
   7   2.0000      -4.990255      -135.7917
   8   2.0000      -2.053250       -55.8718
   9   2.0000      -2.048308       -55.7373
  10   2.0000      -2.046564       -55.6898
  11   2.0000      -2.046564       -55.6898
  12   2.0000      -2.045017       -55.6477
  13   2.0000      -2.045017       -55.6477
  14   2.0000      -2.032280       -55.3012
  15   2.0000      -2.032176       -55.2983
  16   2.0000      -2.032025       -55.2942
  17   2.0000      -2.031921       -55.2914
  18   2.0000      -0.866068       -23.5669
  19   2.0000      -0.767965       -20.8974
  20   2.0000      -0.453901       -12.3513
  21   2.0000      -0.412578       -11.2268
  22   2.0000      -0.412570       -11.2266
  23   2.0000      -0.340260        -9.2590
  24   2.0000      -0.340257        -9.2589
  25   0.0000      -0.055778        -1.5178
  26   0.0000       0.192483         5.2377
  27   0.0000       0.202996         5.5238
  28   0.0000       0.215817         5.8727
  29   0.0000       0.215825         5.8729

MULLIKEN ATOMIC CHARGES
-----------------------
   0 I :    0.000000
   1 I :   -0.000000
Sum of atomic charges:   -0.0000000

LOEWDIN ATOMIC CHARGES
----------------------
   0 I :   -0.000000
   1 I :    0.000000

  Mayer bond orders larger than 0.100000
B(  0-I ,  1-I ) :   1.1193

Dispersion correction           -0.000014663
FINAL SINGLE POINT ENERGY      -595.548348463914

DIPOLE MOMENT
-------------
                                X             Y             Z
Electronic contribution:      0.00000       0.00000      -0.00000
Nuclear contribution   :      0.00000       0.00000       0.00000
                        -----------------------------------------
Total Dipole Moment    :      0.00000       0.00000      -0.00000
                        -----------------------------------------
Magnitude (a.u.)       :      0.00000
Magnitude (Debye)      :      0.00000

Rotational constants in cm-1:     0.000000     0.037642     0.037642
Rotational constants in MHz :     0.000000  1128.468594  1128.468594

                             ****ORCA TERMINATED NORMALLY****
TOTAL RUN TIME: 0 days 0 hours 1 minutes 47 seconds 604 msec
