                         Program Version 4.2.1 -  RELEASE  -
|  1> # input to generate an atomic fitting density for I
|  2> # this file is use internally by ORCA
|  3> #
|  4> # atomic ground state (S=2): 1s2 2s2 2p6 3s2 3p6 4s2 3d10 4p6 5s2 4d10 5p5
|  5> #
|  6> ! RHF AllowRHF def2-SVP def2/J  NoMulliken NoLoewdin NoMayer NoPrintMOs
|  7>
|  8> %output print[p_atomdensfit] 2 end
|  9>
| 10> %scf
| 11>   guess hcore
| 12>   maxiter 1000
| 13>   maxdisk 500000
| 14>   SCFMode Conventional
| 15>   lshift 1.000000
| 16>   hftyp rohf
| 17>   rohf_case sahf
| 18>   rohf_numop   2
| 19>   rohf_norb[1] 3
| 20>   rohf_nel[1]  5
| 21> end
| 22>
| 23> %basis
| 24>   NewECP 53
| 25>     N_core 28
| 26>     lmax f
| 27>     s 7
| 28>       1      40.0158350000     49.9942930000  2
| 29>       2      17.4297470000    281.0253170000  2
| 30>       3       9.0054840000     61.5733260000  2
| 31>       4      19.4586090000     21.8420400000  2
| 32>       5      19.3492600000     28.4681910000  2
| 33>       6       4.8237670000      0.2437130000  2
| 34>       7       4.8843150000      0.3208040000  2
| 35>     p 8
| 36>       1      15.3554660000     67.4428410000  2
| 37>       2      14.9718330000    134.8811370000  2
| 38>       3       8.9601640000     14.6750510000  2
| 39>       4       8.2590960000     29.3756660000  2
| 40>       5      19.4586090000     21.8420400000  2
| 41>       6      19.3492600000     28.4681910000  2
| 42>       7       4.8237670000      0.2437130000  2
| 43>       8       4.8843150000      0.3208040000  2
| 44>     d 10
| 45>       1      15.0689080000     35.4395290000  2
| 46>       2      14.5553220000     53.1760570000  2
| 47>       3       6.7186470000      9.0671950000  2
| 48>       4       6.4563930000     13.2069370000  2
| 49>       5       1.1917790000      0.0893350000  2
| 50>       6       1.2911570000      0.0523800000  2
| 51>       7      19.4586090000     21.8420400000  2
| 52>       8      19.3492600000     28.4681910000  2
| 53>       9       4.8237670000      0.2437130000  2
| 54>      10       4.8843150000      0.3208040000  2
| 55>     f 4
| 56>       1      19.4586090000    -21.8420400000  2
| 57>       2      19.3492600000    -28.4681910000  2
| 58>       3       4.8237670000     -0.2437130000  2
| 59>       4       4.8843150000     -0.3208040000  2
| 60>   end
| 61>   NewGTO 53
| 62>     s 5
| 63>      1    5899.5791533000      0.0002610056
| 64>      2     898.5423876500      0.0016697400
| 65>      3     200.3723791200      0.0046223298
| 66>      4      31.4180538400     -0.0425342684
| 67>      5      15.6459878380      1.0368318419
| 68>     s 2
| 69>      1      11.8157418570      0.6510798928
| 70>      2       6.4614458287      0.3642365936
| 71>     s 1
| 72>      1       2.3838067579      1.0000000000
| 73>     s 1
| 74>      1       1.1712089662      1.0000000000
| 75>     s 1
| 76>      1       0.3211587576      1.0000000000
| 77>     s 1
| 78>      1       0.1238791936      1.0000000000
| 79>     p 3
| 80>      1     197.3003054700      0.0031927743
| 81>      2      20.0614113490      0.2856760152
| 82>      3       9.7631460485     -1.2328204991
| 83>     p 4
| 84>      1      12.9843169040     -0.0386816591
| 85>      2       3.6199503008      0.3065970959
| 86>      3       2.0232273090      0.5169312450
| 87>      4       1.0367490559      0.2505722415
| 88>     p 1
| 89>      1       0.4593781600      1.0000000000
| 90>     p 1
| 91>      1       0.1911653293      1.0000000000
| 92>     p 1
| 93>      1       0.0748788130      1.0000000000
| 94>   end
| 95>   NewAuxGTO 53
| 96>     S 1
| 97>      1 1310.72 1.0
| 98>     S 1
| 99>      1  655.36 1.0
|100>     S 1
|101>      1  327.68 1.0
|102>     S 1
|103>      1  163.84 1.0
|104>     S 1
|105>      1   81.82 1.0
|106>     S 1
|107>      1   40.96 1.0
|108>     S 1
|109>      1   20.48 1.0
|110>     S 1
|111>      1   10.24 1.0
|112>     S 1
|113>      1    5.12 1.0
|114>     S 1
|115>      1    2.56 1.0
|116>     S 1
|117>      1    1.28 1.0
|118>     S 1
|119>      1    0.64 1.0
|120>     S 1
|121>      1    0.32 1.0
|122>     S 1
|123>      1    0.16 1.0
|124>     S 1
|125>      1    0.08 1.0
|126>     S 1
|127>      1    0.04 1.0
|128>     S 1
|129>      1    0.02 1.0
|130>     S 1
|131>      1    0.01 1.0
|132>   end
|133> end
|134>
|135> * xyz 0 2
|136> 53  0.0 0.0 0.0
|137> *
|138>
|139>
|140>                          ****END OF INPUT****

CARTESIAN COORDINATES (ANGSTROEM)
---------------------------------
  I      0.000000    0.000000    0.000000

 Total Charge           Charge          ....    0
 Multiplicity           Mult            ....    2
 Number of Electrons    NEL             ....   25
 Basis Dimension        Dim             ....   21

ORBITAL ENERGIES
----------------

  NO   OCC          E(Eh)            E(eV)
   0   2.0000     -12.520822      -340.7089
   1   2.0000      -9.991559      -271.8841
   2   2.0000      -9.991559      -271.8841
   3   2.0000      -9.989585      -271.8304
   4   2.0000      -3.231807       -87.9419
   5   2.0000      -2.151414       -58.5429
   6   2.0000      -2.151414       -58.5429
   7   2.0000      -2.146322       -58.4044
   8   2.0000      -0.580455       -15.7950
   9   2.0000      -0.267188        -7.2705
  10   1.6667      -0.279884        -7.6160
  11   1.6667      -0.279884        -7.6160
  12   1.6667       1.114200        30.3189
  13   0.0000       0.368415        10.0251
  14   0.0000       0.368415        10.0251
  15   0.0000       0.374735        10.1971
  16   0.0000      29.265485       796.3543
  17   0.0000      29.265485       796.3543

CleanUpVectors: The p-vectors have cracked symmetry
CleanUpVectors: The p-vectors have cracked symmetry
CleanUpVectors: The p-vectors have cracked symmetry
CleanUpVectors: The p-vectors have cracked symmetry
CleanUpVectors: The p-vectors have cracked symmetry
CleanUpVectors: The p-vectors have cracked symmetry
CleanUpVectors: The p-vectors have cracked symmetry
CleanUpVectors: The p-vectors have cracked symmetry
CleanUpVectors: The p-vectors have cracked symmetry
CleanUpVectors: The p-vectors have cracked symmetry
CleanUpVectors: The p-vectors have cracked symmetry
CleanUpVectors: The p-vectors have cracked symmetry
CleanUpVectors: The p-vectors have cracked symmetry
CleanUpVectors: The p-vectors have cracked symmetry
CleanUpVectors: The p-vectors have cracked symmetry
--------------------------
ATOM BASIS FOR ELEMENT I
--------------------------
 NewGTO I
 S 11
    1       5899.579153300000        -0.000169504800
    2        898.542387650000        -0.001084378822
    3        200.372379120000        -0.003001878462
    4         31.418053840000         0.027623019068
    5         15.645987838000        -0.673349438393
    6         11.815741857000         0.870975903476
    7          6.461445828700         0.487254021662
    8          2.383806757900        -1.238367697074
    9          1.171208966200        -0.253464094405
   10          0.321158757600        -0.007076170798
   11          0.123879193600         0.002382220644
 P 21
    1        197.300305470000        -0.000008918530
    2         20.061411349000        -0.000797992559
    3          9.763146048500         0.003443696819
    4        197.300305470000         0.000014241391
    5         20.061411349000         0.001274259810
    6          9.763146048500        -0.005499004228
    7        197.300305470000        -0.000562434445
    8         20.061411349000        -0.050324268482
    9          9.763146048500         0.217171853727
   10         12.984316904000         0.000715308079
   11          3.619950300800        -0.005669647704
   12          2.023227309000        -0.009559183977
   13          1.036749055900        -0.004633626191
   14         12.984316904000        -0.001142226612
   15          3.619950300800         0.009053473151
   16          2.023227309000         0.015264407949
   17          1.036749055900         0.007399121163
   18         12.984316904000         0.045109889072
   19          3.619950300800        -0.357548287942
   20          2.023227309000        -0.602836374202
   21          1.036749055900        -0.292213061220
 S 11
    1       5899.579153300000        -0.000137609445
    2        898.542387650000        -0.000880333582
    3        200.372379120000        -0.002437021422
    4         31.418053840000         0.022425254741
    5         15.645987838000        -0.546646716928
    6         11.815741857000         0.741784978461
    7          6.461445828700         0.414980153321
    8          2.383806757900        -2.039197418254
    9          1.171208966200         0.912565203251
   10          0.321158757600         1.086013425147
   11          0.123879193600        -0.188382365034
 P 21
    1        197.300305470000        -0.000003467893
    2         20.061411349000        -0.000310292514
    3          9.763146048500         0.001339051765
    4        197.300305470000         0.000005537653
    5         20.061411349000         0.000495485919
    6          9.763146048500        -0.002138244602
    7        197.300305470000        -0.000218697204
    8         20.061411349000        -0.019568105983
    9          9.763146048500         0.084445178809
   10         12.984316904000         0.000464165574
   11          3.619950300800        -0.003679051531
   12          2.023227309000        -0.006202983375
   13          1.036749055900        -0.003006774040
   14         12.984316904000        -0.000741195793
   15          3.619950300800         0.005874837916
   16          2.023227309000         0.009905140390
   17          1.036749055900         0.004801321750
   18         12.984316904000         0.029271866831
   19          3.619950300800        -0.232013558122
   20          2.023227309000        -0.391181322526
   21          1.036749055900        -0.189617442873
 S 11
    1       5899.579153300000         0.001244225510
    2        898.542387650000         0.007959726165
    3        200.372379120000         0.022034855397
    4         31.418053840000        -0.202762782873
    5         15.645987838000         4.942624324895
    6         11.815741857000        -4.567307218093
    7          6.461445828700        -2.555109505669
    8          2.383806757900         4.181680912288
    9          1.171208966200        -2.750937537195
   10          0.321158757600         0.869613257987
   11          0.123879193600        -0.314163225610
 S 11
    1       5899.579153300000         0.001022923430
    2        898.542387650000         0.006543982842
    3        200.372379120000         0.018115662859
    4         31.418053840000        -0.166698721126
    5         15.645987838000         4.063512752625
    6         11.815741857000        -2.460188832514
    7          6.461445828700        -1.376314657966
    8          2.383806757900         1.459109760322
    9          1.171208966200        -0.864336625030
   10          0.321158757600         0.256729919616
   11          0.123879193600        -0.091920373884
 P 21
    1        898.542387650000         0.000000000021
    2        200.372379120000         0.000000000121
    3         31.418053840000        -0.000000002807
    4         15.645987838000         0.000000096958
    5         11.815741857000        -0.000000154731
    6          6.461445828700        -0.000000117056
    7          2.383806757900         0.000000985680
    8          1.171208966200        -0.000000658688
    9          0.321158757600        -0.000001441455
   10        197.300305470000         0.000072914103
   11         20.061411349000         0.006524047270
   12          9.763146048500        -0.028154198405
   13        197.300305470000        -0.000206189293
   14         20.061411349000        -0.018448950718
   15          9.763146048500         0.079615520455
   16        197.300305470000        -0.000006377142
   17         20.061411349000        -0.000570599849
   18          9.763146048500         0.002462394998
   19         12.984316904000        -0.009759301440
   20          3.619950300800         0.077353804082
   21          2.023227309000         0.130420668638
 P 21
    1        197.300305470000        -0.000001249528
    2         20.061411349000        -0.000111802493
    3          9.763146048500         0.000482478043
    4        197.300305470000         0.000001995287
    5         20.061411349000         0.000178529930
    6          9.763146048500        -0.000770436947
    7        197.300305470000        -0.000078799603
    8         20.061411349000        -0.007050657048
    9          9.763146048500         0.030426756460
   10         12.984316904000         0.000192819920
   11          3.619950300800        -0.001528321921
   12          2.023227309000        -0.002576793336
   13          1.036749055900        -0.001249049827
   14         12.984316904000        -0.000307901246
   15          3.619950300800         0.002440475152
   16          2.023227309000         0.004114709095
   17          1.036749055900         0.001994524206
   18         12.984316904000         0.012159899992
   19          3.619950300800        -0.096381337063
   20          2.023227309000        -0.162501619321
   21          1.036749055900        -0.078769459952
 P 21
    1        197.300305470000        -0.000001584036
    2         20.061411349000        -0.000141732917
    3          9.763146048500         0.000611641286
    4        197.300305470000         0.000002529443
    5         20.061411349000         0.000226323889
    6          9.763146048500        -0.000976689380
    7        197.300305470000        -0.000099894852
    8         20.061411349000        -0.008938171172
    9          9.763146048500         0.038572228884
   10         12.984316904000         0.000249473500
   11          3.619950300800        -0.001977367375
   12          2.023227309000        -0.003333896481
   13          1.036749055900        -0.001616040668
   14         12.984316904000        -0.000398367677
   15          3.619950300800         0.003157526739
   16          2.023227309000         0.005323678046
   17          1.036749055900         0.002580548098
   18         12.984316904000         0.015732667463
   19          3.619950300800        -0.124699670775
   20          2.023227309000        -0.210247118863
   21          1.036749055900        -0.101913150641
 P 21
    1       5899.579153300000        -0.000000000002
    2        898.542387650000        -0.000000000025
    3        200.372379120000        -0.000000000146
    4         31.418053840000         0.000000003383
    5         15.645987838000        -0.000000116865
    6         11.815741857000         0.000000123944
    7          6.461445828700         0.000000093765
    8          2.383806757900        -0.000000245133
    9          1.171208966200         0.000000232203
   10        197.300305470000         0.001352484739
   11         20.061411349000         0.121014645702
   12          9.763146048500        -0.522232627083
   13        197.300305470000        -0.003824608085
   14         20.061411349000        -0.342209844750
   15          9.763146048500         1.476789401820
   16        197.300305470000        -0.000118283607
   17         20.061411349000        -0.010583519636
   18          9.763146048500         0.045672647565
   19         12.984316904000        -0.010882900619
   20          3.619950300800         0.086259633176
   21          2.023227309000         0.145436144593
 end
  // -----------------------------------------------
  // The basis set
  // -----------------------------------------------
  BAS[ATNO] = new BFNGauss[NSH];
  // Basis function   1 L = s
  InitBFNGauss(BAS[ATNO][  0]);
  BAS[ATNO][  0].l  = 0;
  BAS[ATNO][  0].ng = 11;
  BAS[ATNO][  0].a[  0] =      5899.579153300000;     BAS[ATNO][  0].d[  0] =         0.000169504800;
  BAS[ATNO][  0].a[  1] =       898.542387650000;     BAS[ATNO][  0].d[  1] =         0.001084378822;
  BAS[ATNO][  0].a[  2] =       200.372379120000;     BAS[ATNO][  0].d[  2] =         0.003001878462;
  BAS[ATNO][  0].a[  3] =        31.418053840000;     BAS[ATNO][  0].d[  3] =        -0.027623019068;
  BAS[ATNO][  0].a[  4] =        15.645987838000;     BAS[ATNO][  0].d[  4] =         0.673349438393;
  BAS[ATNO][  0].a[  5] =        11.815741857000;     BAS[ATNO][  0].d[  5] =        -0.870975903476;
  BAS[ATNO][  0].a[  6] =         6.461445828700;     BAS[ATNO][  0].d[  6] =        -0.487254021662;
  BAS[ATNO][  0].a[  7] =         2.383806757900;     BAS[ATNO][  0].d[  7] =         1.238367697074;
  BAS[ATNO][  0].a[  8] =         1.171208966200;     BAS[ATNO][  0].d[  8] =         0.253464094405;
  BAS[ATNO][  0].a[  9] =         0.321158757600;     BAS[ATNO][  0].d[  9] =         0.007076170798;
  BAS[ATNO][  0].a[ 10] =         0.123879193600;     BAS[ATNO][  0].d[ 10] =        -0.002382220644;

FINAL SINGLE POINT ENERGY      -254.989917550190

DIPOLE MOMENT
-------------
                                X             Y             Z
Electronic contribution:      0.00049       0.00000       0.00069
Nuclear contribution   :      0.00000       0.00000       0.00000
                        -----------------------------------------
Total Dipole Moment    :      0.00049       0.00000       0.00069
                        -----------------------------------------
Magnitude (a.u.)       :      0.00085
Magnitude (Debye)      :      0.00215

Rotational constants in cm-1:     0.000000     0.000000     0.000000
Rotational constants in MHz :     0.000000     0.000000     0.000000

                             ****ORCA TERMINATED NORMALLY****
TOTAL RUN TIME: 0 days 0 hours 0 minutes 4 seconds 604 msec
