                         Program Version 4.2.1 -  RELEASE  -
|  1> # avogadro generated ORCA input file
|  2> # Basic Mode
|  3> #
|  4> ! wB97X-D3 OPT def2-TZVP def2/J CPCM
|  5> %cpcm
|  6>   epsilon 3
|  7> end
|  8> %pal
|  9>  nprocs 4
| 10> end
| 11>
| 12>
| 13> * xyz 1 1
| 14>    C        1.49209        0.13279        0.87825
| 15>    N        2.61562       -0.03249       -0.03300
| 16>    H        2.05878       -0.15067       -0.89498
| 17>    C        3.49301        1.07568       -0.11156
| 18>    C        4.78265        0.64417        0.05324
| 19>    N        4.74613       -0.74800        0.23004
| 20>    C        3.51058       -1.13265        0.17680
| 21>    C        3.05274       -2.55203        0.28667
| 22>    O        1.87122       -2.82462        0.15558
| 23>    O        3.92399       -3.55472        0.50584
| 24>    C        5.92206       -1.57240        0.42090
| 25>    H        0.88478        1.02390        0.59772
| 26>    H        1.86244        0.27947        1.91660
| 27>    H        0.81783       -0.74936        0.87320
| 28>    H        3.18758        2.10298       -0.26588
| 29>    H        5.67225        1.26060        0.04675
| 30>    H        6.84080       -0.94771        0.41448
| 31>    H        6.00459       -2.31410       -0.40143
| 32>    H        5.86652       -2.09294        1.40024
| 33> *
| 34>
| 35>
| 36>                          ****END OF INPUT****
 Total Charge           Charge          ....    1
 Multiplicity           Mult            ....    1
 Number of Electrons    NEL             ....   74
Dispersion correction           -0.006720455
FINAL SINGLE POINT ENERGY      -493.755617518920
Dispersion correction            ... done
Dispersion correction           -0.006746136
FINAL SINGLE POINT ENERGY      -493.790062880943
Dispersion correction            ... done
Dispersion correction           -0.006779251
FINAL SINGLE POINT ENERGY      -493.801699005339
Dispersion correction            ... done
FINAL SINGLE POINT ENERGY      -493.802566049312
FINAL SINGLE POINT ENERGY      -493.803284560801
FINAL SINGLE POINT ENERGY      -493.805069065828
FINAL SINGLE POINT ENERGY      -493.805299805784
FINAL SINGLE POINT ENERGY      -493.805505171539
FINAL SINGLE POINT ENERGY      -493.805552316886
FINAL SINGLE POINT ENERGY      -493.805460674599
Dispersion correction            ... done
Dispersion correction           -0.006919943
FINAL SINGLE POINT ENERGY      -493.805480463164
Dispersion correction            ... done
Dispersion correction           -0.006916896
FINAL SINGLE POINT ENERGY      -493.805484650497
Dispersion correction            ... done
                    ***********************HURRAY********************
 Multiplicity           Mult            ....    1
 Number of Electrons    NEL             ....   74
 Basis Dimension        Dim             ....  364

ORBITAL ENERGIES
----------------

  NO   OCC          E(Eh)            E(eV)
   0   2.0000     -19.254215      -523.9338
   1   2.0000     -19.251609      -523.8629
   2   2.0000     -14.662311      -398.9818
   3   2.0000     -14.638788      -398.3417
   4   2.0000     -10.500508      -285.7333
   5   2.0000     -10.456960      -284.5483
   6   2.0000     -10.443367      -284.1785
   7   2.0000     -10.440202      -284.0923
   8   2.0000     -10.414076      -283.3814
   9   2.0000     -10.394829      -282.8577
  10   2.0000      -1.313626       -35.7456
  11   2.0000      -1.232938       -33.5499
  12   2.0000      -1.202673       -32.7264
  13   2.0000      -1.151595       -31.3365
  14   2.0000      -1.028432       -27.9851
  15   2.0000      -0.977626       -26.6026
  16   2.0000      -0.919941       -25.0329
  17   2.0000      -0.869032       -23.6476
  18   2.0000      -0.841379       -22.8951
  19   2.0000      -0.804993       -21.9050
  20   2.0000      -0.744300       -20.2534
  21   2.0000      -0.716791       -19.5049
  22   2.0000      -0.680849       -18.5268
  23   2.0000      -0.673501       -18.3269
  24   2.0000      -0.659947       -17.9581
  25   2.0000      -0.652946       -17.7676
  26   2.0000      -0.625415       -17.0184
  27   2.0000      -0.605870       -16.4866
  28   2.0000      -0.600674       -16.3452
  29   2.0000      -0.591674       -16.1003
  30   2.0000      -0.582325       -15.8459
  31   2.0000      -0.580460       -15.7951
  32   2.0000      -0.557117       -15.1599
  33   2.0000      -0.478651       -13.0248
  34   2.0000      -0.427402       -11.6302
  35   2.0000      -0.426158       -11.5964
  36   2.0000      -0.421934       -11.4814
  37   0.0000      -0.106379        -2.8947
  38   0.0000      -0.010447        -0.2843
  39   0.0000       0.039145         1.0652
  40   0.0000       0.074978         2.0403
  41   0.0000       0.080347         2.1864

MULLIKEN ATOMIC CHARGES
-----------------------
   0 C :   -0.332157
   1 N :    0.056587
   2 H :    0.352858
   3 C :   -0.137024
   4 C :   -0.026353
   5 N :    0.067187
   6 C :    0.114046
   7 C :    0.357933
   8 O :   -0.481348
   9 O :   -0.437244
  10 C :   -0.301895
  11 H :    0.212351
  12 H :    0.210539
  13 H :    0.224617
  14 H :    0.257246
  15 H :    0.259092
  16 H :    0.182468
  17 H :    0.210507
  18 H :    0.210587
Sum of atomic charges:    1.0000000

LOEWDIN ATOMIC CHARGES
----------------------
   0 C :   -0.167733
   1 N :    0.304477
   2 H :    0.282840
   3 C :   -0.084018
   4 C :   -0.069219
   5 N :    0.332664
   6 C :   -0.030208
   7 C :   -0.665975
   8 O :    0.000962
   9 O :    0.032465
  10 C :   -0.186792
  11 H :    0.148387
  12 H :    0.149735
  13 H :    0.149706
  14 H :    0.177657
  15 H :    0.179362
  16 H :    0.142004
  17 H :    0.151965
  18 H :    0.151722

  Mayer bond orders larger than 0.100000
B(  0-C ,  1-N ) :   0.8566 B(  0-C , 11-H ) :   0.9423 B(  0-C , 12-H ) :   0.9357
B(  0-C , 13-H ) :   0.9306 B(  1-N ,  2-H ) :   0.8122 B(  1-N ,  3-C ) :   0.9928
B(  1-N ,  6-C ) :   0.9847 B(  3-C ,  4-C ) :   1.8738 B(  3-C , 14-H ) :   0.9161
B(  4-C ,  5-N ) :   1.0074 B(  4-C , 15-H ) :   0.9068 B(  5-N ,  6-C ) :   1.6720
B(  5-N , 10-C ) :   0.8660 B(  6-C ,  7-C ) :   0.8314 B(  7-C ,  8-O ) :   1.7320
B(  7-C ,  9-O ) :   1.8366 B(  8-O ,  9-O ) :   0.1013 B( 10-C , 16-H ) :   0.9444
B( 10-C , 17-H ) :   0.9402 B( 10-C , 18-H ) :   0.9393

Dispersion correction           -0.006917310
FINAL SINGLE POINT ENERGY      -493.805486549042

DIPOLE MOMENT
-------------
                                X             Y             Z
Electronic contribution:     -0.79836      -1.98941      -2.05049
Nuclear contribution   :      2.03440       7.40244       1.94288
                        -----------------------------------------
Total Dipole Moment    :      1.23604       5.41303      -0.10761
                        -----------------------------------------
Magnitude (a.u.)       :      5.55341
Magnitude (Debye)      :     14.11563

Rotational constants in cm-1:     0.059954     0.048405     0.029842
Rotational constants in MHz :  1797.388943  1451.135393   894.627185

                             ****ORCA TERMINATED NORMALLY****
TOTAL RUN TIME: 0 days 2 hours 12 minutes 44 seconds 513 msec
                         Program Version 4.2.1 -  RELEASE  -
|  1> # avogadro generated ORCA input file
|  2> # Basic Mode
|  3> #
|  4> ! wB97X-D3 OPT def2-TZVP def2/J CPCM
|  5> %cpcm
|  6>   epsilon 3
|  7> end
|  8> %pal
|  9>  nprocs 4
| 10> end
| 11>
| 12> * xyz 0 1
| 13>    C        1.59090        0.09222        1.03917
| 14>    N        2.62227       -0.06282       -0.07248
| 15>    C        3.49616        1.09208       -0.20633
| 16>    C        4.73229        0.67726       -0.00112
| 17>    N        4.70856       -0.72741        0.23287
| 18>    C        3.51039       -1.17943        0.17463
| 19>    C        2.94871       -2.63503        0.18319
| 20>    O        1.89736       -2.66808       -0.45902
| 21>    O        3.64270       -3.43810        0.78600
| 22>    C        5.91569       -1.53064        0.47974
| 23>    H        0.98295        0.95403        0.78232
| 24>    H        1.00063       -0.81880        1.05551
| 25>    H        3.07924        2.06674       -0.39727
| 26>    H        5.66449        1.21767        0.00816
| 27>    H        6.76804       -0.85926        0.46422
| 28>    H        6.00082       -2.28115       -0.30176
| 29>    H        5.81435       -2.01580        1.44571
| 30> *
| 31>
| 32>
| 33>                          ****END OF INPUT****

CARTESIAN COORDINATES (ANGSTROEM)
---------------------------------
  C      1.590900    0.092220    1.039170
  N      2.622270   -0.062820   -0.072480
  C      3.496160    1.092080   -0.206330
  C      4.732290    0.677260   -0.001120
  N      4.708560   -0.727410    0.232870
  C      3.510390   -1.179430    0.174630
  C      2.948710   -2.635030    0.183190
  O      1.897360   -2.668080   -0.459020
  O      3.642700   -3.438100    0.786000
  C      5.915690   -1.530640    0.479740
  H      0.982950    0.954030    0.782320
  H      1.000630   -0.818800    1.055510
  H      3.079240    2.066740   -0.397270
  H      5.664490    1.217670    0.008160
  H      6.768040   -0.859260    0.464220
  H      6.000820   -2.281150   -0.301760
  H      5.814350   -2.015800    1.445710
