                         Program Version 4.2.1 -  RELEASE  -
                         Program Version 4.2.1 -  RELEASE  -
                         Program Version 4.2.1 -  RELEASE  -
|  1> # avogadro generated ORCA input file
|  2> # Basic Mode
|  3> #
|  4> ! wB97X-D3 OPT def2-TZVP def2/J CPCM
|  5> %cpcm
|  6>   epsilon 3
|  7> end
|  8> %pal
|  9>  nprocs 4
| 10> end
| 11>
| 12>
| 13> * xyz 0 1
| 14>    N        0.97115       -0.06047       -0.07424
| 15>    C        2.23212       -0.06047       -0.07424
| 16>    C        3.75212       -0.06047       -0.07424
| 17>    C        4.51212       -1.01687        0.83025
| 18>    N        5.14260       -1.81028        1.58060
| 19>    C        4.45369        0.85912       -0.79483
| 20>    C        5.93039        0.89174       -0.75424
| 21>    C        6.62777        1.87635       -1.34672
| 22>    C        5.94691        2.96206       -2.07578
| 23>    C        6.64252        4.01173       -2.59007
| 24>    C        8.05455        4.13566       -2.42655
| 25>    N        9.20302        4.21572       -2.28046
| 26>    C        6.00625        5.06337       -3.31185
| 27>    N        5.47241        5.90969       -3.89965
| 28>    C        4.48403        2.84102       -2.24750
| 29>    C        3.78597        1.85655       -1.65028
| 30>    H        6.49177        0.11561       -0.23868
| 31>    H        7.71347        1.84891       -1.28005
| 32>    H        3.94399        3.55279       -2.86827
| 33>    H        2.71147        1.81323       -1.81289
| 34> *
| 35>
| 36>
| 37>                          ****END OF INPUT****
 Total Charge           Charge          ....    0
 Multiplicity           Mult            ....    1
 Number of Electrons    NEL             ....  104
Dispersion correction           -0.007631750
FINAL SINGLE POINT ENERGY      -678.551463895618
Dispersion correction            ... done
Dispersion correction           -0.007712299
FINAL SINGLE POINT ENERGY      -678.608564650839
Dispersion correction            ... done
Dispersion correction           -0.007734541
FINAL SINGLE POINT ENERGY      -678.612875614418
Dispersion correction            ... done
FINAL SINGLE POINT ENERGY      -678.613572441092
FINAL SINGLE POINT ENERGY      -678.613735649915
Dispersion correction            ... done
Dispersion correction           -0.007708437
FINAL SINGLE POINT ENERGY      -678.613782620615
Dispersion correction            ... done
Dispersion correction           -0.007708589
FINAL SINGLE POINT ENERGY      -678.613785126544
Dispersion correction            ... done
                    ***********************HURRAY********************

CARTESIAN COORDINATES (ANGSTROEM)
---------------------------------
  N      1.204453   -0.213499   -0.256531
  C      2.348748   -0.150294   -0.183375
  C      3.772862   -0.064870   -0.096693
  C      4.419605   -1.075063    0.680826
  N      4.948629   -1.881990    1.303525
  C      4.473929    0.921560   -0.720327
  C      5.920475    0.989680   -0.618803
  C      6.609258    1.957418   -1.231831
  C      5.933984    2.973518   -2.018371
  C      6.635088    3.959757   -2.642482
  C      8.059187    4.044723   -2.555938
  N      9.203529    4.106230   -2.481163
  C      5.988114    4.969560   -3.420222
  N      5.458618    5.774867   -4.044720
  C      4.487423    2.905428   -2.119794
  C      3.798646    1.937620   -1.506910
  H      6.438328    0.239062   -0.035337
  H      7.687850    1.995564   -1.146022
  H      3.969554    3.656222   -2.703024
  H      2.720038    1.899496   -1.592499

 Multiplicity           Mult            ....    1
 Number of Electrons    NEL             ....  104
 Basis Dimension        Dim             ....  520

ORBITAL ENERGIES
----------------

  NO   OCC          E(Eh)            E(eV)
   0   2.0000     -14.457223      -393.4010
   1   2.0000     -14.457213      -393.4008
   2   2.0000     -14.457207      -393.4006
   3   2.0000     -14.457206      -393.4006
   4   2.0000     -10.392763      -282.8015
   5   2.0000     -10.392752      -282.8012
   6   2.0000     -10.377280      -282.3801
   7   2.0000     -10.377251      -282.3793
   8   2.0000     -10.356067      -281.8029
   9   2.0000     -10.356049      -281.8024
  10   2.0000     -10.355899      -281.7983
  11   2.0000     -10.355892      -281.7981
  12   2.0000     -10.338808      -281.3333
  13   2.0000     -10.338785      -281.3327
  14   2.0000     -10.337922      -281.3092
  15   2.0000     -10.337917      -281.3090
  16   2.0000      -1.080611       -29.4049
  17   2.0000      -1.076207       -29.2851
  18   2.0000      -1.059725       -28.8366
  19   2.0000      -1.059683       -28.8355
  20   2.0000      -1.046200       -28.4686
  21   2.0000      -1.004649       -27.3379
  22   2.0000      -0.951794       -25.8996
  23   2.0000      -0.932705       -25.3802
  24   2.0000      -0.867706       -23.6115
  25   2.0000      -0.794761       -21.6266
  26   2.0000      -0.785929       -21.3862
  27   2.0000      -0.738015       -20.0824
  28   2.0000      -0.698823       -19.0159
  29   2.0000      -0.692886       -18.8544
  30   2.0000      -0.669542       -18.2192
  31   2.0000      -0.594220       -16.1696
  32   2.0000      -0.589243       -16.0341
  33   2.0000      -0.582708       -15.8563
  34   2.0000      -0.574338       -15.6285
  35   2.0000      -0.554654       -15.0929
  36   2.0000      -0.541755       -14.7419
  37   2.0000      -0.511680       -13.9235
  38   2.0000      -0.510743       -13.8980
  39   2.0000      -0.508258       -13.8304
  40   2.0000      -0.504805       -13.7364
  41   2.0000      -0.503519       -13.7014
  42   2.0000      -0.487060       -13.2536
  43   2.0000      -0.485034       -13.1984
  44   2.0000      -0.481453       -13.1010
  45   2.0000      -0.480987       -13.0883
  46   2.0000      -0.478517       -13.0211
  47   2.0000      -0.468768       -12.7558
  48   2.0000      -0.465004       -12.6534
  49   2.0000      -0.430086       -11.7032
  50   2.0000      -0.413184       -11.2433
  51   2.0000      -0.341160        -9.2834
  52   0.0000      -0.107333        -2.9207
  53   0.0000       0.016206         0.4410
  54   0.0000       0.023052         0.6273
  55   0.0000       0.051440         1.3997
  56   0.0000       0.057409         1.5622

MULLIKEN ATOMIC CHARGES
-----------------------
   0 N :   -0.044306
   1 C :   -0.192966
   2 C :    0.306561
   3 C :   -0.190581
   4 N :   -0.047502
   5 C :    0.181088
   6 C :   -0.196705
   7 C :   -0.186775
   8 C :    0.181623
   9 C :    0.306028
  10 C :   -0.192640
  11 N :   -0.044503
  12 C :   -0.190521
  13 N :   -0.047532
  14 C :   -0.196755
  15 C :   -0.186662
  16 H :    0.184364
  17 H :    0.186720
  18 H :    0.184350
  19 H :    0.186716
Sum of atomic charges:   -0.0000000

LOEWDIN ATOMIC CHARGES
----------------------
   0 N :    0.074069
   1 C :   -0.131016
   2 C :   -0.103618
   3 C :   -0.130994
   4 N :    0.073936
   5 C :   -0.039823
   6 C :   -0.046078
   7 C :   -0.046267
   8 C :   -0.039741
   9 C :   -0.103652
  10 C :   -0.130987
  11 N :    0.074006
  12 C :   -0.131015
  13 N :    0.073891
  14 C :   -0.046096
  15 C :   -0.046260
  16 H :    0.174889
  17 H :    0.174933
  18 H :    0.174891
  19 H :    0.174932

  Mayer bond orders larger than 0.100000
B(  0-N ,  1-C ) :   2.9657 B(  1-C ,  2-C ) :   0.9915 B(  2-C ,  3-C ) :   0.9861
B(  2-C ,  5-C ) :   1.5692 B(  3-C ,  4-N ) :   2.9649 B(  5-C ,  6-C ) :   1.0344
B(  5-C , 15-C ) :   1.0257 B(  6-C ,  7-C ) :   1.8461 B(  6-C , 16-H ) :   0.9457
B(  7-C ,  8-C ) :   1.0256 B(  7-C , 17-H ) :   0.9441 B(  8-C ,  9-C ) :   1.5690
B(  8-C , 14-C ) :   1.0344 B(  9-C , 10-C ) :   0.9918 B(  9-C , 12-C ) :   0.9862
B( 10-C , 11-N ) :   2.9655 B( 12-C , 13-N ) :   2.9649 B( 14-C , 15-C ) :   1.8461
B( 14-C , 18-H ) :   0.9457 B( 15-C , 19-H ) :   0.9441

Dispersion correction           -0.007708500
FINAL SINGLE POINT ENERGY      -678.613786569641

DIPOLE MOMENT
-------------
                                X             Y             Z
Electronic contribution:     -0.00003       0.00064      -0.00040
Nuclear contribution   :      0.00014       0.00164       0.00123
                        -----------------------------------------
Total Dipole Moment    :      0.00011       0.00228       0.00083
                        -----------------------------------------
Magnitude (a.u.)       :      0.00243
Magnitude (Debye)      :      0.00618

Rotational constants in cm-1:     0.038858     0.009276     0.007488
Rotational constants in MHz :  1164.944985   278.076593   224.490033

                             ****ORCA TERMINATED NORMALLY****
TOTAL RUN TIME: 0 days 3 hours 0 minutes 21 seconds 612 msec
