                         Program Version 4.2.1 -  RELEASE  -
|  1> # avogadro generated ORCA input file
|  2> # Basic Mode
|  3> #
|  4> ! wB97X-D3 OPT def2-TZVP def2/J CPCM
|  5> %cpcm
|  6>   epsilon 3
|  7> end
|  8> %pal
|  9>  nprocs 4
| 10> end
| 11>
| 12> * xyz 0 1
| 13>    C        4.08551        2.67564        0.50903
| 14>    C        3.39664        3.99799        0.18638
| 15>    C        3.19296        1.52197        0.06174
| 16>    H        4.24814        2.60811        1.60734
| 17>    H        5.07130        2.61900       -0.00077
| 18>    N        2.08004        4.04979        0.85047
| 19>    H        3.28444        4.10160       -0.91784
| 20>    H        4.04369        4.82629        0.55065
| 21>    N        1.87882        1.63359        0.71788
| 22>    H        3.68920        0.56889        0.35010
| 23>    H        3.07256        1.53710       -1.04566
| 24>    C        1.21815        2.92738        0.39530
| 25>    C        1.03675        0.43114        0.48634
| 26>    C        1.43893        5.35105        0.58664
| 27>    C        0.10116        5.42149        1.31407
| 28>    H        1.27967        5.49757       -0.50684
| 29>    H        2.08294        6.17754        0.96028
| 30>    C       -0.78295        4.27317        0.84079
| 31>    H       -0.39549        6.39526        1.11417
| 32>    H        0.27336        5.32709        2.40899
| 33>    C       -0.99471        1.83617        0.79277
| 34>    C       -0.33374        0.77837       -0.09541
| 35>    N       -0.10092        2.98922        1.07918
| 36>    H       -1.01150        4.39206       -0.24314
| 37>    H       -1.73871        4.31200        1.40907
| 38>    H       -1.25604        1.37019        1.76710
| 39>    H       -1.95092        2.14229        0.31013
| 40>    H        1.06732        3.00917       -0.70943
| 41>    H        0.89026       -0.06963        1.46758
| 42>    H        1.52581       -0.30941       -0.18651
| 43>    H       -0.20102        1.18457       -1.12134
| 44>    H       -0.97507       -0.12574       -0.17435
| 45> *
| 46>
| 47>
| 48>                          ****END OF INPUT****
 Total Charge           Charge          ....    0
 Multiplicity           Mult            ....    1
 Number of Electrons    NEL             ....  100
Dispersion correction           -0.013811169
FINAL SINGLE POINT ENERGY      -556.788697122944
Dispersion correction            ... done
Dispersion correction           -0.013868489
FINAL SINGLE POINT ENERGY      -556.797129855297
Dispersion correction            ... done
Dispersion correction           -0.013874810
FINAL SINGLE POINT ENERGY      -556.798294083802
Dispersion correction            ... done
FINAL SINGLE POINT ENERGY      -556.798640775292
FINAL SINGLE POINT ENERGY      -556.798701025176
FINAL SINGLE POINT ENERGY      -556.798752145375
FINAL SINGLE POINT ENERGY      -556.798796443275
FINAL SINGLE POINT ENERGY      -556.798900369835
FINAL SINGLE POINT ENERGY      -556.799064867505
FINAL SINGLE POINT ENERGY      -556.799256953439
FINAL SINGLE POINT ENERGY      -556.799513630892
FINAL SINGLE POINT ENERGY      -556.799443555676
FINAL SINGLE POINT ENERGY      -556.800017558035
FINAL SINGLE POINT ENERGY      -556.800378824112
FINAL SINGLE POINT ENERGY      -556.800634048904
FINAL SINGLE POINT ENERGY      -556.800676947776
FINAL SINGLE POINT ENERGY      -556.800692458891
Dispersion correction            ... done
Dispersion correction           -0.013998203
FINAL SINGLE POINT ENERGY      -556.800668262932
Dispersion correction            ... done
Dispersion correction           -0.014008737
FINAL SINGLE POINT ENERGY      -556.800742055622
Dispersion correction            ... done
                    ***********************HURRAY********************

CARTESIAN COORDINATES (ANGSTROEM)
---------------------------------
  C      4.047876    2.676859    0.293733
  C      3.329491    4.004443    0.114359
  C      3.112827    1.520988   -0.027025
  H      4.381104    2.583070    1.329817
  H      4.929866    2.647628   -0.350775
  N      2.067641    4.031058    0.842369
  H      3.154495    4.183450   -0.963547
  H      3.949055    4.826968    0.477833
  N      1.898498    1.687264    0.744877
  H      3.576095    0.571356    0.245190
  H      2.912534    1.491917   -1.114842
  C      1.228319    2.926438    0.393756
  C      1.024510    0.523755    0.837944
  C      1.423528    5.324843    0.712861
  C      0.133656    5.326539    1.505430
  H      1.207826    5.567858   -0.345481
  H      2.117492    6.083070    1.081264
  C     -0.755928    4.225301    0.971166
  H     -0.373748    6.288461    1.407361
  H      0.352037    5.160148    2.563157
  C     -0.964513    1.932749    0.368656
  C     -0.200412    0.676743   -0.046346
  N     -0.090287    2.932866    0.993716
  H     -1.060338    4.485571   -0.060241
  H     -1.674480    4.136477    1.556934
  H     -1.744863    1.684543    1.093097
  H     -1.466993    2.365487   -0.511303
  H      1.130022    3.010154   -0.725648
  H      0.705529    0.385673    1.876669
  H      1.597789   -0.362138    0.559762
  H      0.115504    0.750034   -1.090392
  H     -0.847552   -0.198652    0.030360

 Multiplicity           Mult            ....    1
 Number of Electrons    NEL             ....  100
 Basis Dimension        Dim             ....  517

ORBITAL ENERGIES
----------------

  NO   OCC          E(Eh)            E(eV)
   0   2.0000     -14.410990      -392.1430
   1   2.0000     -14.407599      -392.0507
   2   2.0000     -14.400568      -391.8594
   3   2.0000     -10.347649      -281.5739
   4   2.0000     -10.291479      -280.0454
   5   2.0000     -10.290408      -280.0162
   6   2.0000     -10.288979      -279.9774
   7   2.0000     -10.288840      -279.9736
   8   2.0000     -10.288795      -279.9723
   9   2.0000     -10.288259      -279.9578
  10   2.0000     -10.264978      -279.3243
  11   2.0000     -10.261988      -279.2429
  12   2.0000     -10.261276      -279.2235
  13   2.0000      -1.099473       -29.9182
  14   2.0000      -1.021494       -27.7963
  15   2.0000      -1.016295       -27.6548
  16   2.0000      -0.895765       -24.3750
  17   2.0000      -0.895361       -24.3640
  18   2.0000      -0.878038       -23.8926
  19   2.0000      -0.793547       -21.5935
  20   2.0000      -0.768420       -20.9098
  21   2.0000      -0.758905       -20.6509
  22   2.0000      -0.750564       -20.4239
  23   2.0000      -0.685030       -18.6406
  24   2.0000      -0.669505       -18.2181
  25   2.0000      -0.646981       -17.6052
  26   2.0000      -0.604949       -16.4615
  27   2.0000      -0.598836       -16.2951
  28   2.0000      -0.586452       -15.9582
  29   2.0000      -0.576056       -15.6753
  30   2.0000      -0.552776       -15.0418
  31   2.0000      -0.541520       -14.7355
  32   2.0000      -0.535184       -14.5631
  33   2.0000      -0.524647       -14.2764
  34   2.0000      -0.510696       -13.8967
  35   2.0000      -0.501333       -13.6420
  36   2.0000      -0.496825       -13.5193
  37   2.0000      -0.490838       -13.3564
  38   2.0000      -0.476128       -12.9561
  39   2.0000      -0.461541       -12.5592
  40   2.0000      -0.454042       -12.3551
  41   2.0000      -0.444300       -12.0900
  42   2.0000      -0.426763       -11.6128
  43   2.0000      -0.425344       -11.5742
  44   2.0000      -0.411147       -11.1879
  45   2.0000      -0.402205       -10.9446
  46   2.0000      -0.398799       -10.8519
  47   2.0000      -0.318952        -8.6791
  48   2.0000      -0.309418        -8.4197
  49   2.0000      -0.295013        -8.0277
  50   0.0000       0.112698         3.0667
  51   0.0000       0.130458         3.5499
  52   0.0000       0.131371         3.5748
  53   0.0000       0.138164         3.7596
  54   0.0000       0.155426         4.2294

MULLIKEN ATOMIC CHARGES
-----------------------
   0 C :   -0.163499
   1 C :   -0.158406
   2 C :   -0.139481
   3 H :    0.095851
   4 H :    0.108232
   5 N :   -0.089175
   6 H :    0.089680
   7 H :    0.129294
   8 N :   -0.101187
   9 H :    0.125462
  10 H :    0.082801
  11 C :   -0.259250
  12 C :   -0.150191
  13 C :   -0.162290
  14 C :   -0.180258
  15 H :    0.089509
  16 H :    0.128893
  17 C :   -0.166839
  18 H :    0.120437
  19 H :    0.103609
  20 C :   -0.166294
  21 C :   -0.207120
  22 N :   -0.109497
  23 H :    0.086212
  24 H :    0.126042
  25 H :    0.126547
  26 H :    0.095070
  27 H :    0.074475
  28 H :    0.104434
  29 H :    0.122485
  30 H :    0.120180
  31 H :    0.124278
Sum of atomic charges:   -0.0000000

LOEWDIN ATOMIC CHARGES
----------------------
   0 C :   -0.262298
   1 C :   -0.286400
   2 C :   -0.289865
   3 H :    0.138993
   4 H :    0.138853
   5 N :    0.107419
   6 H :    0.121607
   7 H :    0.136584
   8 N :    0.112161
   9 H :    0.134907
  10 H :    0.120720
  11 C :   -0.339144
  12 C :   -0.277189
  13 C :   -0.290245
  14 C :   -0.264560
  15 H :    0.122387
  16 H :    0.136758
  17 C :   -0.289403
  18 H :    0.142147
  19 H :    0.140517
  20 C :   -0.275022
  21 C :   -0.265869
  22 N :    0.108899
  23 H :    0.122239
  24 H :    0.137254
  25 H :    0.134075
  26 H :    0.124309
  27 H :    0.114459
  28 H :    0.131206
  29 H :    0.135860
  30 H :    0.137806
  31 H :    0.140833

  Mayer bond orders larger than 0.100000
B(  0-C ,  1-C ) :   1.0212 B(  0-C ,  2-C ) :   1.0175 B(  0-C ,  3-H ) :   0.9613
B(  0-C ,  4-H ) :   0.9715 B(  1-C ,  5-N ) :   0.9340 B(  1-C ,  6-H ) :   0.9581
B(  1-C ,  7-H ) :   0.9645 B(  2-C ,  8-N ) :   0.9480 B(  2-C ,  9-H ) :   0.9670
B(  2-C , 10-H ) :   0.9476 B(  5-N , 11-C ) :   1.0651 B(  5-N , 13-C ) :   0.9587
B(  8-N , 11-C ) :   1.0628 B(  8-N , 12-C ) :   0.9691 B( 11-C , 22-N ) :   1.0705
B( 11-C , 27-H ) :   1.0294 B( 12-C , 21-C ) :   0.9840 B( 12-C , 28-H ) :   0.9701
B( 12-C , 29-H ) :   0.9725 B( 13-C , 14-C ) :   1.0001 B( 13-C , 15-H ) :   0.9636
B( 13-C , 16-H ) :   0.9625 B( 14-C , 17-C ) :   1.0141 B( 14-C , 18-H ) :   0.9758
B( 14-C , 19-H ) :   0.9583 B( 17-C , 22-N ) :   0.9592 B( 17-C , 23-H ) :   0.9651
B( 17-C , 24-H ) :   0.9599 B( 20-C , 21-C ) :   0.9876 B( 20-C , 22-N ) :   0.9391
B( 20-C , 25-H ) :   0.9659 B( 20-C , 26-H ) :   0.9691 B( 21-C , 30-H ) :   0.9777
B( 21-C , 31-H ) :   0.9720

Dispersion correction           -0.014009181
FINAL SINGLE POINT ENERGY      -556.800742029065

DIPOLE MOMENT
-------------
                                X             Y             Z
Electronic contribution:      0.45841      -0.37948       2.81484
Nuclear contribution   :     -0.69182       0.37384      -3.67918
                        -----------------------------------------
Total Dipole Moment    :     -0.23341      -0.00564      -0.86434
                        -----------------------------------------
Magnitude (a.u.)       :      0.89532
Magnitude (Debye)      :      2.27571

Rotational constants in cm-1:     0.033776     0.032932     0.017966
Rotational constants in MHz :  1012.590833   987.281143   538.604530

                             ****ORCA TERMINATED NORMALLY****
TOTAL RUN TIME: 0 days 9 hours 43 minutes 45 seconds 337 msec
