                         Program Version 4.2.1 -  RELEASE  -
|  1> # avogadro generated ORCA input file
|  2> # Basic Mode
|  3> #
|  4> ! wB97X-D3 OPT def2-TZVP def2/J CPCM
|  5> %cpcm
|  6>   epsilon 3
|  7> end
|  8> %pal
|  9>  nprocs 4
| 10> end
| 11>
| 12> * xyz 0 1
| 13>    C       -7.35492       -0.15222       -0.00155
| 14>    C       -7.33159       -1.51919       -0.00382
| 15>    S       -5.80456        0.71417       -0.00130
| 16>    H       -8.29177        0.38861        0.00005
| 17>    S       -5.75257       -2.33219       -0.00638
| 18>    H       -8.24946       -2.09165       -0.00408
| 19>    C       -4.77944       -0.79196       -0.00391
| 20>    C       -3.38773       -0.76821       -0.00406
| 21>    C       -2.63893        0.44577       -0.00215
| 22>    C       -2.59792       -1.95592       -0.00618
| 23>    N       -3.21929        1.67643       -0.00001
| 24>    S       -1.95513        2.72108        0.00153
| 25>    N       -0.65604        1.72020       -0.00035
| 26>    C       -1.19405        0.47045       -0.00235
| 27>    C       -1.15303       -1.93125       -0.00637
| 28>    C       -0.40423       -0.71726       -0.00447
| 29>    N       -3.13593       -3.20568       -0.00819
| 30>    N       -0.57267       -3.16191       -0.00854
| 31>    S       -1.83684       -4.20656       -0.01009
| 32>    C        0.98747       -0.69349       -0.00468
| 33>    S        1.96057        0.84676       -0.00234
| 34>    S        2.01262       -2.19959       -0.00743
| 35>    C        3.53961        0.03381       -0.00300
| 36>    C        3.56297       -1.33316       -0.00528
| 37>    H        4.49984       -1.87395       -0.00579
| 38>    H        4.45745        0.60631       -0.00165
| 39> *
| 40>
| 41>
| 42>                          ****END OF INPUT****
 Total Charge           Charge          ....    0
 Multiplicity           Mult            ....    1
 Number of Electrons    NEL             ....  200
Dispersion correction           -0.013491098
FINAL SINGLE POINT ENERGY     -3067.874697554459
Dispersion correction            ... done
Dispersion correction           -0.013544407
FINAL SINGLE POINT ENERGY     -3067.903807969272
Dispersion correction            ... done
Dispersion correction           -0.013560582
FINAL SINGLE POINT ENERGY     -3067.909959959679
Dispersion correction            ... done
FINAL SINGLE POINT ENERGY     -3067.910374518322
FINAL SINGLE POINT ENERGY     -3067.910550241827
FINAL SINGLE POINT ENERGY     -3067.910492291400
FINAL SINGLE POINT ENERGY     -3067.910581139515
FINAL SINGLE POINT ENERGY     -3067.910583882427
FINAL SINGLE POINT ENERGY     -3067.910580478124
FINAL SINGLE POINT ENERGY     -3067.910582593005
Dispersion correction            ... done
Dispersion correction           -0.013549791
FINAL SINGLE POINT ENERGY     -3067.910583617708
Dispersion correction            ... done
Dispersion correction           -0.013549813
FINAL SINGLE POINT ENERGY     -3067.910587488584
Dispersion correction            ... done
                    ***********************HURRAY********************

CARTESIAN COORDINATES (ANGSTROEM)
---------------------------------
  C     -7.284294   -0.170739   -0.002700
  C     -7.261559   -1.498450   -0.004544
  S     -5.760154    0.647582   -0.000032
  H     -8.176299    0.439855   -0.003457
  S     -5.710129   -2.263426   -0.004172
  H     -8.132303   -2.139024   -0.007019
  C     -4.779579   -0.791658   -0.002383
  C     -3.408436   -0.768492   -0.002716
  C     -2.640447    0.460642   -0.000945
  C     -2.598833   -1.970854   -0.005277
  N     -3.164762    1.664146    0.001594
  S     -1.955880    2.749831    0.002597
  N     -0.710701    1.706360    0.000181
  C     -1.193113    0.485444   -0.001849
  C     -1.151499   -1.946051   -0.006163
  C     -0.383523   -0.716919   -0.004595
  N     -3.081270   -3.191759   -0.007303
  N     -0.627207   -3.149567   -0.008691
  S     -1.836097   -4.235242   -0.009184
  C      0.987614   -0.693764   -0.005313
  S      1.918174    0.777985   -0.003666
  S      1.968157   -2.133012   -0.007803
  C      3.469597    0.012995   -0.004348
  C      3.492313   -1.314718   -0.006203
  H      4.384312   -1.925322   -0.005991
  H      4.340351    0.653558   -0.002410

 Multiplicity           Mult            ....    1
 Number of Electrons    NEL             ....  200
 Basis Dimension        Dim             ....  742

ORBITAL ENERGIES
----------------

  NO   OCC          E(Eh)            E(eV)
   0   2.0000     -89.021329     -2422.3935
   1   2.0000     -89.021328     -2422.3935
   2   2.0000     -88.995394     -2421.6878
   3   2.0000     -88.995381     -2421.6874
   4   2.0000     -88.995303     -2421.6853
   5   2.0000     -88.995291     -2421.6850
   6   2.0000     -14.450827      -393.2270
   7   2.0000     -14.450821      -393.2268
   8   2.0000     -14.450773      -393.2255
   9   2.0000     -14.450767      -393.2254
  10   2.0000     -10.370153      -282.1862
  11   2.0000     -10.370134      -282.1857
  12   2.0000     -10.340828      -281.3882
  13   2.0000     -10.340816      -281.3879
  14   2.0000     -10.340452      -281.3780
  15   2.0000     -10.340437      -281.3776
  16   2.0000     -10.320391      -280.8321
  17   2.0000     -10.320381      -280.8319
  18   2.0000     -10.319477      -280.8072
  19   2.0000     -10.319467      -280.8070
  20   2.0000     -10.304310      -280.3945
  21   2.0000     -10.304282      -280.3938
  22   2.0000      -8.112437      -220.7506
  23   2.0000      -8.112436      -220.7506
  24   2.0000      -8.090365      -220.1500
  25   2.0000      -8.090352      -220.1497
  26   2.0000      -8.090296      -220.1482
  27   2.0000      -8.090284      -220.1478
  28   2.0000      -6.067014      -165.0918
  29   2.0000      -6.067012      -165.0918
  30   2.0000      -6.060871      -164.9247
  31   2.0000      -6.060869      -164.9246
  32   2.0000      -6.057668      -164.8375
  33   2.0000      -6.057667      -164.8375
  34   2.0000      -6.043642      -164.4559
  35   2.0000      -6.043629      -164.4555
  36   2.0000      -6.043588      -164.4544
  37   2.0000      -6.043576      -164.4541
  38   2.0000      -6.039201      -164.3350
  39   2.0000      -6.039188      -164.3347
  40   2.0000      -6.039123      -164.3329
  41   2.0000      -6.039111      -164.3326
  42   2.0000      -6.035523      -164.2349
  43   2.0000      -6.035510      -164.2346
  44   2.0000      -6.035448      -164.2329
  45   2.0000      -6.035436      -164.2326
  46   2.0000      -1.147344       -31.2208
  47   2.0000      -1.141772       -31.0692
  48   2.0000      -1.037761       -28.2389
  49   2.0000      -1.027681       -27.9646
  50   2.0000      -1.010847       -27.5065
  51   2.0000      -1.008125       -27.4325
  52   2.0000      -0.973200       -26.4821
  53   2.0000      -0.919376       -25.0175
  54   2.0000      -0.897207       -24.4143
  55   2.0000      -0.892653       -24.2903
  56   2.0000      -0.886183       -24.1143
  57   2.0000      -0.879151       -23.9229
  58   2.0000      -0.834514       -22.7083
  59   2.0000      -0.799343       -21.7512
  60   2.0000      -0.759458       -20.6659
  61   2.0000      -0.728513       -19.8239
  62   2.0000      -0.705787       -19.2054
  63   2.0000      -0.703419       -19.1410
  64   2.0000      -0.684995       -18.6397
  65   2.0000      -0.681359       -18.5407
  66   2.0000      -0.656011       -17.8510
  67   2.0000      -0.633160       -17.2292
  68   2.0000      -0.622186       -16.9306
  69   2.0000      -0.617525       -16.8037
  70   2.0000      -0.608892       -16.5688
  71   2.0000      -0.581068       -15.8117
  72   2.0000      -0.555513       -15.1163
  73   2.0000      -0.552502       -15.0344
  74   2.0000      -0.543008       -14.7760
  75   2.0000      -0.541630       -14.7385
  76   2.0000      -0.524290       -14.2667
  77   2.0000      -0.512314       -13.9408
  78   2.0000      -0.501882       -13.6569
  79   2.0000      -0.498327       -13.5602
  80   2.0000      -0.491845       -13.3838
  81   2.0000      -0.489042       -13.3075
  82   2.0000      -0.485701       -13.2166
  83   2.0000      -0.468606       -12.7514
  84   2.0000      -0.456039       -12.4095
  85   2.0000      -0.455074       -12.3832
  86   2.0000      -0.445238       -12.1155
  87   2.0000      -0.443889       -12.0788
  88   2.0000      -0.421451       -11.4683
  89   2.0000      -0.417119       -11.3504
  90   2.0000      -0.403759       -10.9868
  91   2.0000      -0.390719       -10.6320
  92   2.0000      -0.386723       -10.5233
  93   2.0000      -0.384937       -10.4747
  94   2.0000      -0.381405       -10.3785
  95   2.0000      -0.379723       -10.3328
  96   2.0000      -0.366256        -9.9663
  97   2.0000      -0.351759        -9.5718
  98   2.0000      -0.297262        -8.0889
  99   2.0000      -0.249455        -6.7880
 100   0.0000      -0.010046        -0.2734
 101   0.0000       0.006020         0.1638
 102   0.0000       0.024309         0.6615
 103   0.0000       0.061616         1.6767
 104   0.0000       0.063219         1.7203

MULLIKEN ATOMIC CHARGES
-----------------------
   0 C :   -0.198341
   1 C :   -0.195209
   2 S :    0.097188
   3 H :    0.197246
   4 S :    0.095500
   5 H :    0.196085
   6 C :    0.018347
   7 C :    0.001905
   8 C :    0.081875
   9 C :    0.082350
  10 N :   -0.321368
  11 S :    0.267890
  12 N :   -0.323501
  13 C :    0.082393
  14 C :    0.081929
  15 C :    0.002019
  16 N :   -0.323468
  17 N :   -0.321393
  18 S :    0.267886
  19 C :    0.018237
  20 S :    0.095499
  21 S :    0.097189
  22 C :   -0.195220
  23 C :   -0.198351
  24 H :    0.197237
  25 H :    0.196075
Sum of atomic charges:   -0.0000000

LOEWDIN ATOMIC CHARGES
----------------------
   0 C :   -0.435356
   1 C :   -0.435205
   2 S :    0.723355
   3 H :    0.147427
   4 S :    0.723406
   5 H :    0.147248
   6 C :   -0.511984
   7 C :   -0.189231
   8 C :   -0.240475
   9 C :   -0.240372
  10 N :   -0.144348
  11 S :    0.600103
  12 N :   -0.144659
  13 C :   -0.240335
  14 C :   -0.240439
  15 C :   -0.189177
  16 N :   -0.144670
  17 N :   -0.144333
  18 S :    0.600101
  19 C :   -0.511929
  20 S :    0.723420
  21 S :    0.723374
  22 C :   -0.435220
  23 C :   -0.435369
  24 H :    0.147424
  25 H :    0.147243

  Mayer bond orders larger than 0.100000
B(  0-C ,  1-C ) :   1.8452 B(  0-C ,  2-S ) :   1.1581 B(  0-C ,  3-H ) :   0.9266
B(  1-C ,  4-S ) :   1.1586 B(  1-C ,  5-H ) :   0.9266 B(  2-S ,  6-C ) :   1.3202
B(  4-S ,  6-C ) :   1.3195 B(  6-C ,  7-C ) :   1.4278 B(  7-C ,  8-C ) :   1.0488
B(  7-C ,  9-C ) :   1.0483 B(  8-C , 10-N ) :   1.5672 B(  8-C , 11-S ) :   0.1289
B(  8-C , 13-C ) :   1.1987 B(  9-C , 14-C ) :   1.1987 B(  9-C , 16-N ) :   1.5666
B(  9-C , 18-S ) :   0.1274 B( 10-N , 11-S ) :   1.2157 B( 11-S , 12-N ) :   1.2160
B( 11-S , 13-C ) :   0.1274 B( 12-N , 13-C ) :   1.5666 B( 13-C , 15-C ) :   1.0481
B( 14-C , 15-C ) :   1.0487 B( 14-C , 17-N ) :   1.5672 B( 14-C , 18-S ) :   0.1288
B( 15-C , 19-C ) :   1.4278 B( 16-N , 18-S ) :   1.2160 B( 17-N , 18-S ) :   1.2157
B( 19-C , 20-S ) :   1.3196 B( 19-C , 21-S ) :   1.3202 B( 20-S , 22-C ) :   1.1586
B( 21-S , 23-C ) :   1.1582 B( 22-C , 23-C ) :   1.8452 B( 22-C , 25-H ) :   0.9266
B( 23-C , 24-H ) :   0.9266

Dispersion correction           -0.013549827
FINAL SINGLE POINT ENERGY     -3067.910587518820

DIPOLE MOMENT
-------------
                                X             Y             Z
Electronic contribution:      0.00043       0.00003       0.00304
Nuclear contribution   :      0.00000      -0.00008      -0.00355
                        -----------------------------------------
Total Dipole Moment    :      0.00043      -0.00005      -0.00051
                        -----------------------------------------
Magnitude (a.u.)       :      0.00067
Magnitude (Debye)      :      0.00170

Rotational constants in cm-1:     0.011364     0.004433     0.003189
Rotational constants in MHz :   340.687419   132.910603    95.610564

                             ****ORCA TERMINATED NORMALLY****
TOTAL RUN TIME: 0 days 13 hours 54 minutes 39 seconds 103 msec
