                         Program Version 4.2.1 -  RELEASE  -
                         Program Version 4.2.1 -  RELEASE  -
|  1> # avogadro generated ORCA input file
|  2> # Basic Mode
|  3> #
|  4> ! wB97X-D3 OPT def2-SVP def2/J CPCM
|  5> %cpcm
|  6>   epsilon 3
|  7> end
|  8> %pal
|  9>  nprocs 4
| 10> end
| 11>
| 12>
| 13> * xyz 0 1
| 14>    C        5.55498       -0.88329       -3.24743
| 15>    C        6.26532       -2.08630       -3.20807
| 16>    C        5.56965       -3.31898       -3.19861
| 17>    C        4.17242       -3.33312       -3.22864
| 18>    C        3.45302       -2.11475       -3.26851
| 19>    C        4.13992       -0.89760       -3.27784
| 20>    C        3.41507        0.01333       -2.50443
| 21>    C        4.09603        0.95020       -1.69074
| 22>    C        5.49327        0.96434       -1.66071
| 23>    C        5.89431        1.24398       -0.35138
| 24>    C        7.03457        0.60464        0.19137
| 25>    C        7.75942       -0.30630       -0.58204
| 26>    C        7.35326       -0.58951       -1.90807
| 27>    C        6.22737        0.04178       -2.44399
| 28>    C        7.37672       -1.90474       -2.38030
| 29>    C        7.80663       -2.95353       -1.53251
| 30>    C        7.11973       -4.17068       -1.52318
| 31>    C        5.99415       -4.35456       -2.36151
| 32>    C        4.85927       -5.00872       -1.87418
| 33>    C        3.73338       -4.37744       -2.41010
| 34>    C        2.56934       -4.21672       -1.62097
| 35>    C        1.85900       -3.01370       -1.66034
| 36>    C        2.30364       -1.95606       -2.48933
| 37>    C        2.28019       -0.64083       -2.01710
| 38>    C        1.81179       -0.36647       -0.70986
| 39>    C        2.48418        0.55860        0.09357
| 40>    C        3.63354        1.22111       -0.39997
| 41>    C        4.74494        1.40267        0.42780
| 42>    C        4.72116        0.92405        1.75967
| 43>    C        5.84705        0.29276        2.29559
| 44>    C        7.01109        0.13204        1.50647
| 45>    C        7.72143       -1.07097        1.54583
| 46>    C        8.18392       -1.34188        0.25506
| 47>    C        8.20767       -2.67389       -0.22319
| 48>    C        7.76863       -3.71821        0.59536
| 49>    C        7.09625       -4.64327       -0.20808
| 50>    C        5.94689       -5.30578        0.28546
| 51>    C        4.83549       -5.48735       -0.54230
| 52>    C        3.68611       -5.32865        0.23687
| 53>    C        2.54585       -4.68931       -0.30588
| 54>    C        1.82101       -3.77838        0.46753
| 55>    C        2.22717       -3.49516        1.79356
| 56>    C        2.20371       -2.17994        2.26579
| 57>    C        1.77380       -1.13114        1.41800
| 58>    C        1.37275       -1.41078        0.10868
| 59>    C        1.39651       -2.74279       -0.36957
| 60>    C        2.46070        0.08601        1.40867
| 61>    C        3.58627        0.26989        2.24700
| 62>    C        4.01077       -0.76569        3.08410
| 63>    C        3.31511       -1.99837        3.09356
| 64>    C        4.02544       -3.20139        3.13292
| 65>    C        3.35306       -4.12645        2.32948
| 66>    C        4.08716       -5.04901        1.54620
| 67>    C        5.48439       -5.03488        1.57623
| 68>    C        6.16536       -4.09800        2.38992
| 69>    C        5.44051       -3.18707        3.16333
| 70>    C        6.12741       -1.96992        3.15400
| 71>    C        5.40801       -0.75156        3.11413
| 72>    C        7.27679       -2.12862        2.37482
| 73>    C        7.30024       -3.44384        1.90259
| 74> *
| 75>
| 76>
| 77>                          ****END OF INPUT****
 Total Charge           Charge          ....    0
 Multiplicity           Mult            ....    1
 Number of Electrons    NEL             ....  360
Dispersion correction           -0.057137656
FINAL SINGLE POINT ENERGY     -2286.143883442313
Dispersion correction            ... done
                         Program Version 4.2.1 -  RELEASE  -
|  1> # avogadro generated ORCA input file
|  2> # Basic Mode
|  3> #
|  4> ! wB97X-D3 OPT def2-TZVP def2/J CPCM
|  5> %cpcm
|  6>   epsilon 3
|  7> end
|  8> %pal
|  9>  nprocs 4
| 10> end
| 11>
| 12>
| 13> * xyz 0 1
| 14>    C        5.55498       -0.88329       -3.24743
| 15>    C        6.26532       -2.08630       -3.20807
| 16>    C        5.56965       -3.31898       -3.19861
| 17>    C        4.17242       -3.33312       -3.22864
| 18>    C        3.45302       -2.11475       -3.26851
| 19>    C        4.13992       -0.89760       -3.27784
| 20>    C        3.41507        0.01333       -2.50443
| 21>    C        4.09603        0.95020       -1.69074
| 22>    C        5.49327        0.96434       -1.66071
| 23>    C        5.89431        1.24398       -0.35138
| 24>    C        7.03457        0.60464        0.19137
| 25>    C        7.75942       -0.30630       -0.58204
| 26>    C        7.35326       -0.58951       -1.90807
| 27>    C        6.22737        0.04178       -2.44399
| 28>    C        7.37672       -1.90474       -2.38030
| 29>    C        7.80663       -2.95353       -1.53251
| 30>    C        7.11973       -4.17068       -1.52318
| 31>    C        5.99415       -4.35456       -2.36151
| 32>    C        4.85927       -5.00872       -1.87418
| 33>    C        3.73338       -4.37744       -2.41010
| 34>    C        2.56934       -4.21672       -1.62097
| 35>    C        1.85900       -3.01370       -1.66034
| 36>    C        2.30364       -1.95606       -2.48933
| 37>    C        2.28019       -0.64083       -2.01710
| 38>    C        1.81179       -0.36647       -0.70986
| 39>    C        2.48418        0.55860        0.09357
| 40>    C        3.63354        1.22111       -0.39997
| 41>    C        4.74494        1.40267        0.42780
| 42>    C        4.72116        0.92405        1.75967
| 43>    C        5.84705        0.29276        2.29559
| 44>    C        7.01109        0.13204        1.50647
| 45>    C        7.72143       -1.07097        1.54583
| 46>    C        8.18392       -1.34188        0.25506
| 47>    C        8.20767       -2.67389       -0.22319
| 48>    C        7.76863       -3.71821        0.59536
| 49>    C        7.09625       -4.64327       -0.20808
| 50>    C        5.94689       -5.30578        0.28546
| 51>    C        4.83549       -5.48735       -0.54230
| 52>    C        3.68611       -5.32865        0.23687
| 53>    C        2.54585       -4.68931       -0.30588
| 54>    C        1.82101       -3.77838        0.46753
| 55>    C        2.22717       -3.49516        1.79356
| 56>    C        2.20371       -2.17994        2.26579
| 57>    C        1.77380       -1.13114        1.41800
| 58>    C        1.37275       -1.41078        0.10868
| 59>    C        1.39651       -2.74279       -0.36957
| 60>    C        2.46070        0.08601        1.40867
| 61>    C        3.58627        0.26989        2.24700
| 62>    C        4.01077       -0.76569        3.08410
| 63>    C        3.31511       -1.99837        3.09356
| 64>    C        4.02544       -3.20139        3.13292
| 65>    C        3.35306       -4.12645        2.32948
| 66>    C        4.08716       -5.04901        1.54620
| 67>    C        5.48439       -5.03488        1.57623
| 68>    C        6.16536       -4.09800        2.38992
| 69>    C        5.44051       -3.18707        3.16333
| 70>    C        6.12741       -1.96992        3.15400
| 71>    C        5.40801       -0.75156        3.11413
| 72>    C        7.27679       -2.12862        2.37482
| 73>    C        7.30024       -3.44384        1.90259
| 74> *
| 75>
| 76>
| 77>                          ****END OF INPUT****
Dispersion correction           -0.057137656
FINAL SINGLE POINT ENERGY     -2286.143883442313
Dispersion correction            ... done
                         Program Version 4.2.1 -  RELEASE  -
|  1> # avogadro generated ORCA input file
|  2> # Basic Mode
|  3> #
|  4> ! wB97X-D3 OPT def2-SVP def2/J CPCM
|  5> %cpcm
|  6>   epsilon 3
|  7> end
|  8> %pal
|  9>  nprocs 12
| 10> end
| 11>
| 12>
| 13> * xyz 0 1
| 14>    C        5.55498       -0.88329       -3.24743
| 15>    C        6.26532       -2.08630       -3.20807
| 16>    C        5.56965       -3.31898       -3.19861
| 17>    C        4.17242       -3.33312       -3.22864
| 18>    C        3.45302       -2.11475       -3.26851
| 19>    C        4.13992       -0.89760       -3.27784
| 20>    C        3.41507        0.01333       -2.50443
| 21>    C        4.09603        0.95020       -1.69074
| 22>    C        5.49327        0.96434       -1.66071
| 23>    C        5.89431        1.24398       -0.35138
| 24>    C        7.03457        0.60464        0.19137
| 25>    C        7.75942       -0.30630       -0.58204
| 26>    C        7.35326       -0.58951       -1.90807
| 27>    C        6.22737        0.04178       -2.44399
| 28>    C        7.37672       -1.90474       -2.38030
| 29>    C        7.80663       -2.95353       -1.53251
| 30>    C        7.11973       -4.17068       -1.52318
| 31>    C        5.99415       -4.35456       -2.36151
| 32>    C        4.85927       -5.00872       -1.87418
| 33>    C        3.73338       -4.37744       -2.41010
| 34>    C        2.56934       -4.21672       -1.62097
| 35>    C        1.85900       -3.01370       -1.66034
| 36>    C        2.30364       -1.95606       -2.48933
| 37>    C        2.28019       -0.64083       -2.01710
| 38>    C        1.81179       -0.36647       -0.70986
| 39>    C        2.48418        0.55860        0.09357
| 40>    C        3.63354        1.22111       -0.39997
| 41>    C        4.74494        1.40267        0.42780
| 42>    C        4.72116        0.92405        1.75967
| 43>    C        5.84705        0.29276        2.29559
| 44>    C        7.01109        0.13204        1.50647
| 45>    C        7.72143       -1.07097        1.54583
| 46>    C        8.18392       -1.34188        0.25506
| 47>    C        8.20767       -2.67389       -0.22319
| 48>    C        7.76863       -3.71821        0.59536
| 49>    C        7.09625       -4.64327       -0.20808
| 50>    C        5.94689       -5.30578        0.28546
| 51>    C        4.83549       -5.48735       -0.54230
| 52>    C        3.68611       -5.32865        0.23687
| 53>    C        2.54585       -4.68931       -0.30588
| 54>    C        1.82101       -3.77838        0.46753
| 55>    C        2.22717       -3.49516        1.79356
| 56>    C        2.20371       -2.17994        2.26579
| 57>    C        1.77380       -1.13114        1.41800
| 58>    C        1.37275       -1.41078        0.10868
| 59>    C        1.39651       -2.74279       -0.36957
| 60>    C        2.46070        0.08601        1.40867
| 61>    C        3.58627        0.26989        2.24700
| 62>    C        4.01077       -0.76569        3.08410
| 63>    C        3.31511       -1.99837        3.09356
| 64>    C        4.02544       -3.20139        3.13292
| 65>    C        3.35306       -4.12645        2.32948
| 66>    C        4.08716       -5.04901        1.54620
| 67>    C        5.48439       -5.03488        1.57623
| 68>    C        6.16536       -4.09800        2.38992
| 69>    C        5.44051       -3.18707        3.16333
| 70>    C        6.12741       -1.96992        3.15400
| 71>    C        5.40801       -0.75156        3.11413
| 72>    C        7.27679       -2.12862        2.37482
| 73>    C        7.30024       -3.44384        1.90259
| 74> *
| 75>
| 76>
| 77>                          ****END OF INPUT****
Dispersion correction           -0.057137656
FINAL SINGLE POINT ENERGY     -2283.818105636683
Dispersion correction            ... done
FINAL SINGLE POINT ENERGY     -2283.902260432622
FINAL SINGLE POINT ENERGY     -2283.947127049056
Dispersion correction            ... done
Dispersion correction           -0.059917292
FINAL SINGLE POINT ENERGY     -2283.958810097515
Dispersion correction            ... done
Dispersion correction           -0.059966547
FINAL SINGLE POINT ENERGY     -2283.959011936536
Dispersion correction            ... done
                    ***********************HURRAY********************

CARTESIAN COORDINATES (ANGSTROEM)
---------------------------------
  C      5.542285   -0.861275   -3.310530
  C      6.280741   -2.111285   -3.269721
  C      5.598435   -3.319986   -3.260741
  C      4.146294   -3.334625   -3.292065
  C      3.440712   -2.139866   -3.330691
  C      4.154676   -0.875159   -3.340275
  C      3.401174    0.071716   -2.536421
  C      4.069207    0.989968   -1.738429
  C      5.521360    1.004515   -1.707305
  C      5.938122    1.295716   -0.346408
  C      7.056509    0.669182    0.185929
  C      7.810322   -0.277478   -0.618271
  C      7.411756   -0.555617   -1.918346
  C      6.241383    0.100139   -2.475483
  C      7.436256   -1.922715   -2.409116
  C      7.858080   -2.951245   -1.577868
  C      7.143682   -4.216397   -1.568567
  C      6.039807   -4.396582   -2.390836
  C      4.860168   -5.076708   -1.884623
  C      3.689803   -4.420461   -2.441474
  C      2.548349   -4.262797   -1.667384
  C      1.809618   -3.012467   -1.707874
  C      2.245746   -1.975173   -2.520703
  C      2.221324   -0.607960   -2.029952
  C      1.761853   -0.338794   -0.748190
  C      2.461200    0.622580    0.086988
  C      3.588630    1.271638   -0.396889
  C      4.743678    1.460647    0.463623
  C      4.720210    0.991925    1.770033
  C      5.890582    0.335779    2.326941
  C      7.032090    0.178198    1.552915
  C      7.770780   -1.072170    1.593398
  C      8.251898   -1.353932    0.251908
  C      8.275179   -2.660343   -0.216946
  C      7.818712   -3.745994    0.633737
  C      7.119275   -4.707289   -0.201492
  C      5.991824   -5.356429    0.282371
  C      4.836745   -5.545381   -0.578163
  C      3.642299   -5.380419    0.231896
  C      2.523928   -4.753801   -0.300413
  C      1.770044   -3.807162    0.503770
  C      2.168648   -3.529028    1.803837
  C      2.144048   -2.161928    2.294666
  C      1.722253   -1.133410    1.463410
  C      1.305301   -1.424268    0.102422
  C      1.328497   -2.730687   -0.366411
  C      2.436741    0.131676    1.454037
  C      3.540589    0.311865    2.276274
  C      3.981968   -0.764709    3.146160
  C      3.299650   -1.973381    3.155173
  C      4.038162   -3.223353    3.195945
  C      3.339057   -4.184789    2.360927
  C      4.059088   -5.089218    1.592791
  C      5.511256   -5.074655    1.623907
  C      6.179279   -4.156356    2.421906
  C      5.425774   -3.209468    3.225768
  C      6.139767   -1.944768    3.216280
  C      5.434106   -0.750052    3.177551
  C      7.334737   -2.109459    2.406273
  C      7.359168   -3.476705    1.915477

 Multiplicity           Mult            ....    1
 Number of Electrons    NEL             ....  360
 Basis Dimension        Dim             ....  840

ORBITAL ENERGIES
----------------

  NO   OCC          E(Eh)            E(eV)
   0   2.0000     -10.339769      -281.3594
   1   2.0000     -10.339752      -281.3590
   2   2.0000     -10.339740      -281.3586
   3   2.0000     -10.339727      -281.3583
   4   2.0000     -10.339721      -281.3581
   5   2.0000     -10.339706      -281.3577
   6   2.0000     -10.339702      -281.3576
   7   2.0000     -10.339692      -281.3573
   8   2.0000     -10.339689      -281.3572
   9   2.0000     -10.339668      -281.3567
  10   2.0000     -10.339658      -281.3564
  11   2.0000     -10.339654      -281.3563
  12   2.0000     -10.339649      -281.3561
  13   2.0000     -10.339639      -281.3559
  14   2.0000     -10.339630      -281.3556
  15   2.0000     -10.339626      -281.3555
  16   2.0000     -10.339609      -281.3551
  17   2.0000     -10.339597      -281.3547
  18   2.0000     -10.339593      -281.3546
  19   2.0000     -10.339588      -281.3545
  20   2.0000     -10.339578      -281.3542
  21   2.0000     -10.339571      -281.3540
  22   2.0000     -10.339557      -281.3536
  23   2.0000     -10.339544      -281.3533
  24   2.0000     -10.339539      -281.3532
  25   2.0000     -10.339513      -281.3524
  26   2.0000     -10.339489      -281.3518
  27   2.0000     -10.339481      -281.3516
  28   2.0000     -10.339478      -281.3515
  29   2.0000     -10.339420      -281.3499
  30   2.0000     -10.339277      -281.3460
  31   2.0000     -10.339274      -281.3459
  32   2.0000     -10.339237      -281.3450
  33   2.0000     -10.339231      -281.3448
  34   2.0000     -10.339200      -281.3439
  35   2.0000     -10.339192      -281.3437
  36   2.0000     -10.339182      -281.3434
  37   2.0000     -10.339166      -281.3430
  38   2.0000     -10.339157      -281.3428
  39   2.0000     -10.339139      -281.3423
  40   2.0000     -10.339127      -281.3420
  41   2.0000     -10.339114      -281.3416
  42   2.0000     -10.339107      -281.3414
  43   2.0000     -10.339101      -281.3412
  44   2.0000     -10.339082      -281.3407
  45   2.0000     -10.339074      -281.3405
  46   2.0000     -10.339066      -281.3403
  47   2.0000     -10.339056      -281.3400
  48   2.0000     -10.339045      -281.3397
  49   2.0000     -10.339029      -281.3393
  50   2.0000     -10.339015      -281.3389
  51   2.0000     -10.339003      -281.3386
  52   2.0000     -10.338994      -281.3383
  53   2.0000     -10.338982      -281.3380
  54   2.0000     -10.338959      -281.3374
  55   2.0000     -10.338934      -281.3367
  56   2.0000     -10.338926      -281.3365
  57   2.0000     -10.338898      -281.3357
  58   2.0000     -10.338883      -281.3353
  59   2.0000     -10.338841      -281.3342
  60   2.0000      -1.095650       -29.8141
  61   2.0000      -1.075493       -29.2657
  62   2.0000      -1.075405       -29.2633
  63   2.0000      -1.075362       -29.2621
  64   2.0000      -1.036598       -28.2073
  65   2.0000      -1.036586       -28.2070
  66   2.0000      -1.036553       -28.2060
  67   2.0000      -1.036499       -28.2046
  68   2.0000      -1.036493       -28.2044
  69   2.0000      -0.995278       -27.0829
  70   2.0000      -0.995262       -27.0825
  71   2.0000      -0.995251       -27.0822
  72   2.0000      -0.963147       -26.2086
  73   2.0000      -0.963137       -26.2083
  74   2.0000      -0.963091       -26.2070
  75   2.0000      -0.963028       -26.2053
  76   2.0000      -0.910579       -24.7781
  77   2.0000      -0.910569       -24.7778
  78   2.0000      -0.910555       -24.7775
  79   2.0000      -0.910537       -24.7770
  80   2.0000      -0.910472       -24.7752
  81   2.0000      -0.892997       -24.2997
  82   2.0000      -0.892992       -24.2995
  83   2.0000      -0.892944       -24.2982
  84   2.0000      -0.892888       -24.2967
  85   2.0000      -0.832650       -22.6576
  86   2.0000      -0.832574       -22.6555
  87   2.0000      -0.832538       -22.6545
  88   2.0000      -0.832468       -22.6526
  89   2.0000      -0.832463       -22.6525
  90   2.0000      -0.821219       -22.3465
  91   2.0000      -0.821206       -22.3462
  92   2.0000      -0.821196       -22.3459
  93   2.0000      -0.780065       -21.2266
  94   2.0000      -0.780052       -21.2263
  95   2.0000      -0.779995       -21.2248
  96   2.0000      -0.738590       -20.0981
  97   2.0000      -0.738585       -20.0979
  98   2.0000      -0.738567       -20.0974
  99   2.0000      -0.738488       -20.0953
 100   2.0000      -0.738435       -20.0938
 101   2.0000      -0.731321       -19.9003
 102   2.0000      -0.731296       -19.8996
 103   2.0000      -0.731280       -19.8992
 104   2.0000      -0.715881       -19.4801
 105   2.0000      -0.668395       -18.1880
 106   2.0000      -0.668335       -18.1863
 107   2.0000      -0.668305       -18.1855
 108   2.0000      -0.668268       -18.1845
 109   2.0000      -0.638469       -17.3736
 110   2.0000      -0.638451       -17.3731
 111   2.0000      -0.638445       -17.3730
 112   2.0000      -0.638399       -17.3717
 113   2.0000      -0.638364       -17.3708
 114   2.0000      -0.626496       -17.0478
 115   2.0000      -0.626388       -17.0449
 116   2.0000      -0.626349       -17.0438
 117   2.0000      -0.602407       -16.3923
 118   2.0000      -0.601161       -16.3584
 119   2.0000      -0.601143       -16.3579
 120   2.0000      -0.601108       -16.3570
 121   2.0000      -0.577130       -15.7045
 122   2.0000      -0.577094       -15.7035
 123   2.0000      -0.577041       -15.7021
 124   2.0000      -0.571922       -15.5628
 125   2.0000      -0.571853       -15.5609
 126   2.0000      -0.571839       -15.5605
 127   2.0000      -0.571808       -15.5597
 128   2.0000      -0.553232       -15.0542
 129   2.0000      -0.553131       -15.0515
 130   2.0000      -0.553122       -15.0512
 131   2.0000      -0.553033       -15.0488
 132   2.0000      -0.553006       -15.0481
 133   2.0000      -0.537394       -14.6232
 134   2.0000      -0.537362       -14.6224
 135   2.0000      -0.537312       -14.6210
 136   2.0000      -0.537304       -14.6208
 137   2.0000      -0.527609       -14.3570
 138   2.0000      -0.527535       -14.3550
 139   2.0000      -0.527527       -14.3547
 140   2.0000      -0.527519       -14.3545
 141   2.0000      -0.527448       -14.3526
 142   2.0000      -0.524020       -14.2593
 143   2.0000      -0.523992       -14.2585
 144   2.0000      -0.523952       -14.2575
 145   2.0000      -0.506966       -13.7952
 146   2.0000      -0.506893       -13.7933
 147   2.0000      -0.506871       -13.7927
 148   2.0000      -0.506769       -13.7899
 149   2.0000      -0.462887       -12.5958
 150   2.0000      -0.462843       -12.5946
 151   2.0000      -0.462810       -12.5937
 152   2.0000      -0.460429       -12.5289
 153   2.0000      -0.460387       -12.5278
 154   2.0000      -0.460287       -12.5250
 155   2.0000      -0.460261       -12.5243
 156   2.0000      -0.460214       -12.5231
 157   2.0000      -0.448403       -12.2017
 158   2.0000      -0.448293       -12.1987
 159   2.0000      -0.448283       -12.1984
 160   2.0000      -0.448234       -12.1971
 161   2.0000      -0.448176       -12.1955
 162   2.0000      -0.445409       -12.1202
 163   2.0000      -0.445395       -12.1198
 164   2.0000      -0.445358       -12.1188
 165   2.0000      -0.445305       -12.1174
 166   2.0000      -0.364686        -9.9236
 167   2.0000      -0.364678        -9.9234
 168   2.0000      -0.364662        -9.9230
 169   2.0000      -0.364608        -9.9215
 170   2.0000      -0.357687        -9.7332
 171   2.0000      -0.357662        -9.7325
 172   2.0000      -0.357632        -9.7317
 173   2.0000      -0.357626        -9.7315
 174   2.0000      -0.357611        -9.7311
 175   2.0000      -0.302424        -8.2294
 176   2.0000      -0.302408        -8.2289
 177   2.0000      -0.302402        -8.2288
 178   2.0000      -0.302366        -8.2278
 179   2.0000      -0.302305        -8.2261
 180   0.0000      -0.070965        -1.9311
 181   0.0000      -0.070948        -1.9306
 182   0.0000      -0.070919        -1.9298
 183   0.0000      -0.018249        -0.4966
 184   0.0000      -0.018230        -0.4961

MULLIKEN ATOMIC CHARGES
-----------------------
   0 C :    0.001107
   1 C :    0.000307
   2 C :    0.000830
   3 C :   -0.000055
   4 C :   -0.000512
   5 C :    0.001540
   6 C :   -0.000240
   7 C :    0.000803
   8 C :    0.000955
   9 C :    0.000312
  10 C :   -0.002343
  11 C :    0.000104
  12 C :    0.001569
  13 C :   -0.000279
  14 C :   -0.003303
  15 C :    0.000886
  16 C :    0.001110
  17 C :   -0.001384
  18 C :    0.003092
  19 C :   -0.001365
  20 C :    0.001425
  21 C :    0.000391
  22 C :   -0.002518
  23 C :    0.000228
  24 C :    0.001070
  25 C :   -0.001981
  26 C :    0.000806
  27 C :   -0.001462
  28 C :    0.003007
  29 C :   -0.001358
  30 C :    0.001507
  31 C :    0.000278
  32 C :    0.000494
  33 C :   -0.000650
  34 C :    0.000415
  35 C :   -0.002952
  36 C :    0.000878
  37 C :   -0.001580
  38 C :    0.000234
  39 C :   -0.002494
  40 C :    0.000126
  41 C :    0.001248
  42 C :   -0.003369
  43 C :    0.001763
  44 C :   -0.000111
  45 C :    0.000312
  46 C :    0.001557
  47 C :   -0.001328
  48 C :    0.000868
  49 C :    0.000095
  50 C :    0.000555
  51 C :   -0.000754
  52 C :    0.000802
  53 C :    0.000415
  54 C :   -0.000240
  55 C :    0.001688
  56 C :   -0.000346
  57 C :   -0.000090
  58 C :   -0.002269
  59 C :    0.000208
Sum of atomic charges:   -0.0000000

LOEWDIN ATOMIC CHARGES
----------------------
   0 C :    0.000087
   1 C :    0.000040
   2 C :    0.000079
   3 C :   -0.000004
   4 C :   -0.000112
   5 C :   -0.000002
   6 C :    0.000199
   7 C :    0.000144
   8 C :    0.000400
   9 C :   -0.000105
  10 C :    0.000071
  11 C :   -0.000147
  12 C :    0.000110
  13 C :    0.000153
  14 C :   -0.000039
  15 C :    0.000071
  16 C :   -0.000119
  17 C :   -0.000240
  18 C :    0.000198
  19 C :   -0.000215
  20 C :   -0.000073
  21 C :   -0.000096
  22 C :    0.000021
  23 C :   -0.000085
  24 C :    0.000141
  25 C :    0.000290
  26 C :    0.000051
  27 C :   -0.000102
  28 C :    0.000213
  29 C :   -0.000177
  30 C :   -0.000081
  31 C :   -0.000033
  32 C :   -0.000041
  33 C :   -0.000222
  34 C :   -0.000148
  35 C :    0.000013
  36 C :   -0.000092
  37 C :   -0.000194
  38 C :   -0.000244
  39 C :    0.000078
  40 C :   -0.000185
  41 C :    0.000018
  42 C :   -0.000104
  43 C :    0.000386
  44 C :    0.000039
  45 C :   -0.000060
  46 C :    0.000190
  47 C :   -0.000211
  48 C :    0.000128
  49 C :   -0.000059
  50 C :   -0.000041
  51 C :    0.000004
  52 C :    0.000217
  53 C :   -0.000002
  54 C :    0.000159
  55 C :   -0.000066
  56 C :   -0.000151
  57 C :    0.000053
  58 C :    0.000001
  59 C :   -0.000104

  Mayer bond orders larger than 0.100000
B(  0-C ,  1-C ) :   1.1815 B(  0-C ,  5-C ) :   1.4753 B(  0-C , 13-C ) :   1.1836
B(  1-C ,  2-C ) :   1.4765 B(  1-C , 14-C ) :   1.1842 B(  2-C ,  3-C ) :   1.1836
B(  2-C , 17-C ) :   1.1817 B(  3-C ,  4-C ) :   1.4769 B(  3-C , 19-C ) :   1.1820
B(  4-C ,  5-C ) :   1.1810 B(  4-C , 22-C ) :   1.1841 B(  5-C ,  6-C ) :   1.1839
B(  6-C ,  7-C ) :   1.4770 B(  6-C , 23-C ) :   1.1822 B(  7-C ,  8-C ) :   1.1810
B(  7-C , 26-C ) :   1.1831 B(  8-C ,  9-C ) :   1.1836 B(  8-C , 13-C ) :   1.4775
B(  9-C , 10-C ) :   1.4762 B(  9-C , 27-C ) :   1.1827 B( 10-C , 11-C ) :   1.1848
B( 10-C , 30-C ) :   1.1820 B( 11-C , 12-C ) :   1.4767 B( 11-C , 32-C ) :   1.1810
B( 12-C , 13-C ) :   1.1817 B( 12-C , 14-C ) :   1.1817 B( 14-C , 15-C ) :   1.4771
B( 15-C , 16-C ) :   1.1809 B( 15-C , 33-C ) :   1.1835 B( 16-C , 17-C ) :   1.4775
B( 16-C , 35-C ) :   1.1822 B( 17-C , 18-C ) :   1.1826 B( 18-C , 19-C ) :   1.1826
B( 18-C , 37-C ) :   1.4752 B( 19-C , 20-C ) :   1.4773 B( 20-C , 21-C ) :   1.1811
B( 20-C , 39-C ) :   1.1820 B( 21-C , 22-C ) :   1.4770 B( 21-C , 45-C ) :   1.1834
B( 22-C , 23-C ) :   1.1822 B( 23-C , 24-C ) :   1.4762 B( 24-C , 25-C ) :   1.1847
B( 24-C , 44-C ) :   1.1814 B( 25-C , 26-C ) :   1.4760 B( 25-C , 46-C ) :   1.1821
B( 26-C , 27-C ) :   1.1833 B( 27-C , 28-C ) :   1.4753 B( 28-C , 29-C ) :   1.1827
B( 28-C , 47-C ) :   1.1826 B( 29-C , 30-C ) :   1.4773 B( 29-C , 57-C ) :   1.1820
B( 30-C , 31-C ) :   1.1811 B( 31-C , 32-C ) :   1.1833 B( 31-C , 58-C ) :   1.4770
B( 32-C , 33-C ) :   1.4767 B( 33-C , 34-C ) :   1.1813 B( 34-C , 35-C ) :   1.1850
B( 34-C , 59-C ) :   1.4761 B( 35-C , 36-C ) :   1.4757 B( 36-C , 37-C ) :   1.1833
B( 36-C , 53-C ) :   1.1832 B( 37-C , 38-C ) :   1.1826 B( 38-C , 39-C ) :   1.4761
B( 38-C , 52-C ) :   1.1836 B( 39-C , 40-C ) :   1.1849 B( 40-C , 41-C ) :   1.4766
B( 40-C , 45-C ) :   1.1810 B( 41-C , 42-C ) :   1.1816 B( 41-C , 51-C ) :   1.1819
B( 42-C , 43-C ) :   1.4772 B( 42-C , 49-C ) :   1.1842 B( 43-C , 44-C ) :   1.1834
B( 43-C , 46-C ) :   1.1808 B( 44-C , 45-C ) :   1.4768 B( 46-C , 47-C ) :   1.4778
B( 47-C , 48-C ) :   1.1817 B( 48-C , 49-C ) :   1.4765 B( 48-C , 57-C ) :   1.1837
B( 49-C , 50-C ) :   1.1816 B( 50-C , 51-C ) :   1.1837 B( 50-C , 55-C ) :   1.4752
B( 51-C , 52-C ) :   1.4774 B( 52-C , 53-C ) :   1.1809 B( 53-C , 54-C ) :   1.4769
B( 54-C , 55-C ) :   1.1838 B( 54-C , 59-C ) :   1.1822 B( 55-C , 56-C ) :   1.1810
B( 56-C , 57-C ) :   1.4769 B( 56-C , 58-C ) :   1.1839 B( 58-C , 59-C ) :   1.1821

Dispersion correction           -0.059968742
FINAL SINGLE POINT ENERGY     -2283.959012049806

DIPOLE MOMENT
-------------
                                X             Y             Z
Electronic contribution:     -0.00191       0.00452      -0.00103
Nuclear contribution   :     -0.00000       0.00000       0.00000
                        -----------------------------------------
Total Dipole Moment    :     -0.00191       0.00452      -0.00103
                        -----------------------------------------
Magnitude (a.u.)       :      0.00501
Magnitude (Debye)      :      0.01274

Rotational constants in cm-1:     0.002797     0.002797     0.002796
Rotational constants in MHz :    83.844878    83.839172    83.822037

                             ****ORCA TERMINATED NORMALLY****
TOTAL RUN TIME: 0 days 3 hours 53 minutes 11 seconds 477 msec
