                         Program Version 4.2.1 -  RELEASE  -
|  1> # avogadro generated ORCA input file
|  2> # Basic Mode
|  3> #
|  4> ! wB97X-D3 OPT def2-TZVP def2/J CPCM
|  5> %cpcm
|  6>   epsilon 3
|  7> end
|  8> %pal
|  9>  nprocs 4
| 10> end
| 11>
| 12> * xyz 0 1
| 13>    C       -4.61596        3.22036       -0.00022
| 14>    C       -3.37260        2.44910       -0.00022
| 15>    C       -3.57605        1.02870        0.00080
| 16>    C       -2.13142        3.02805       -0.00013
| 17>    C       -2.04936        4.41937       -0.00086
| 18>    C       -0.89860        2.30060        0.00116
| 19>    F       -3.14415        5.22646       -0.00188
| 20>    F       -0.90241        0.94019        0.00161
| 21>    C       -0.85345        5.07040        0.00069
| 22>    C        0.36163        2.97440        0.00356
| 23>    C        0.41565        4.40611        0.00426
| 24>    C        1.55948        5.20595        0.01193
| 25>    C        1.38251        6.65349        0.01232
| 26>    C        3.05127        4.95501        0.02214
| 27>    F       -1.02164        6.41561        0.00110
| 28>    F        1.49085        2.21423        0.00659
| 29>    O        3.70769        3.76426       -0.01081
| 30>    C        5.10151        3.84802        0.00278
| 31>    H        5.42999        4.48120       -0.85964
| 32>    H        5.61793        2.87417       -0.04035
| 33>    H        5.41608        4.40436        0.92124
| 34>    O        3.75497        5.96904        0.05907
| 35>    N       -5.59264        3.84454        0.00006
| 36>    N       -3.76626       -0.11088        0.00159
| 37>    N        1.23572        7.79974        0.01258
| 38> *
| 39>
| 40>
| 41>                          ****END OF INPUT****
 Total Charge           Charge          ....    0
 Multiplicity           Mult            ....    1
 Number of Electrons    NEL             ....  154
Dispersion correction           -0.010566129
FINAL SINGLE POINT ENERGY     -1211.202267455242
Dispersion correction            ... done
Dispersion correction           -0.010863642
FINAL SINGLE POINT ENERGY     -1211.231264275153
Dispersion correction            ... done
Dispersion correction           -0.010766820
FINAL SINGLE POINT ENERGY     -1211.239647044303
Dispersion correction            ... done
FINAL SINGLE POINT ENERGY     -1211.245501429262
FINAL SINGLE POINT ENERGY     -1211.246554385264
FINAL SINGLE POINT ENERGY     -1211.248279927251
FINAL SINGLE POINT ENERGY     -1211.248920586468
FINAL SINGLE POINT ENERGY     -1211.251886938159
FINAL SINGLE POINT ENERGY     -1211.254095162550
FINAL SINGLE POINT ENERGY     -1211.256007186762
FINAL SINGLE POINT ENERGY     -1211.260892595103
FINAL SINGLE POINT ENERGY     -1211.260987424669
FINAL SINGLE POINT ENERGY     -1211.261059891091
FINAL SINGLE POINT ENERGY     -1211.261075984133
FINAL SINGLE POINT ENERGY     -1211.261088640764
FINAL SINGLE POINT ENERGY     -1211.261087967321
FINAL SINGLE POINT ENERGY     -1211.261090722021
Dispersion correction            ... done
Dispersion correction           -0.011315943
FINAL SINGLE POINT ENERGY     -1211.261091873232
Dispersion correction            ... done
Dispersion correction           -0.011315199
FINAL SINGLE POINT ENERGY     -1211.261092580310
Dispersion correction            ... done
                    ***********************HURRAY********************

CARTESIAN COORDINATES (ANGSTROEM)
---------------------------------
  C     -4.491491    2.899732   -0.243990
  C     -3.193494    2.366170    0.044193
  C     -3.237171    0.954390    0.283512
  C     -2.055092    3.110181    0.079686
  C     -2.041515    4.540028   -0.162734
  C     -0.751733    2.536834    0.359453
  F     -3.191408    5.144512   -0.409984
  F     -0.676093    1.239973    0.604479
  C     -0.919301    5.268987   -0.143832
  C      0.369616    3.265344    0.373955
  C      0.390637    4.694322    0.113437
  C      1.533743    5.408694    0.111105
  C      1.607647    6.809275   -0.148089
  C      2.900547    4.825136    0.426246
  F     -0.993810    6.565836   -0.373399
  F      1.519263    2.664953    0.633214
  O      3.477767    4.368058   -0.662740
  C      4.799408    3.818129   -0.496567
  H      5.469376    4.578562   -0.099795
  H      5.108735    3.509538   -1.489827
  H      4.759775    2.965020    0.178985
  O      3.365997    4.857122    1.528945
  N     -5.564918    3.236706   -0.471232
  N     -3.369006   -0.172322    0.458578
  N      1.783262    7.927298   -0.344232

 Multiplicity           Mult            ....    1
 Number of Electrons    NEL             ....  154
 Basis Dimension        Dim             ....  700

ORBITAL ENERGIES
----------------

  NO   OCC          E(Eh)            E(eV)
   0   2.0000     -24.860926      -676.5002
   1   2.0000     -24.857013      -676.3937
   2   2.0000     -24.855248      -676.3457
   3   2.0000     -24.853627      -676.3016
   4   2.0000     -19.319255      -525.7037
   5   2.0000     -19.260946      -524.1170
   6   2.0000     -14.457653      -393.4127
   7   2.0000     -14.453847      -393.3092
   8   2.0000     -14.453738      -393.3062
   9   2.0000     -10.457142      -284.5533
  10   2.0000     -10.435525      -283.9651
  11   2.0000     -10.434685      -283.9422
  12   2.0000     -10.432099      -283.8718
  13   2.0000     -10.430599      -283.8310
  14   2.0000     -10.402878      -283.0767
  15   2.0000     -10.400721      -283.0180
  16   2.0000     -10.392305      -282.7890
  17   2.0000     -10.390041      -282.7274
  18   2.0000     -10.355941      -281.7995
  19   2.0000     -10.354863      -281.7702
  20   2.0000     -10.354501      -281.7603
  21   2.0000     -10.344416      -281.4859
  22   2.0000      -1.422338       -38.7038
  23   2.0000      -1.419780       -38.6342
  24   2.0000      -1.404456       -38.2172
  25   2.0000      -1.402163       -38.1548
  26   2.0000      -1.271893       -34.6100
  27   2.0000      -1.180898       -32.1339
  28   2.0000      -1.081069       -29.4174
  29   2.0000      -1.070422       -29.1277
  30   2.0000      -1.059151       -28.8210
  31   2.0000      -1.055823       -28.7304
  32   2.0000      -1.014854       -27.6156
  33   2.0000      -0.967833       -26.3361
  34   2.0000      -0.939332       -25.5605
  35   2.0000      -0.896885       -24.4055
  36   2.0000      -0.863664       -23.5015
  37   2.0000      -0.822507       -22.3815
  38   2.0000      -0.809472       -22.0268
  39   2.0000      -0.766809       -20.8659
  40   2.0000      -0.744746       -20.2656
  41   2.0000      -0.731689       -19.9103
  42   2.0000      -0.726017       -19.7559
  43   2.0000      -0.699303       -19.0290
  44   2.0000      -0.690240       -18.7824
  45   2.0000      -0.670002       -18.2317
  46   2.0000      -0.669544       -18.2192
  47   2.0000      -0.669056       -18.2059
  48   2.0000      -0.664840       -18.0912
  49   2.0000      -0.648003       -17.6330
  50   2.0000      -0.628968       -17.1151
  51   2.0000      -0.623036       -16.9537
  52   2.0000      -0.620411       -16.8822
  53   2.0000      -0.616250       -16.7690
  54   2.0000      -0.611697       -16.6451
  55   2.0000      -0.588673       -16.0186
  56   2.0000      -0.557572       -15.1723
  57   2.0000      -0.556733       -15.1495
  58   2.0000      -0.553297       -15.0560
  59   2.0000      -0.550743       -14.9865
  60   2.0000      -0.533315       -14.5122
  61   2.0000      -0.528735       -14.3876
  62   2.0000      -0.520383       -14.1603
  63   2.0000      -0.508127       -13.8268
  64   2.0000      -0.504529       -13.7289
  65   2.0000      -0.501765       -13.6537
  66   2.0000      -0.491857       -13.3841
  67   2.0000      -0.490140       -13.3374
  68   2.0000      -0.476913       -12.9775
  69   2.0000      -0.476010       -12.9529
  70   2.0000      -0.470676       -12.8077
  71   2.0000      -0.460896       -12.5416
  72   2.0000      -0.443608       -12.0712
  73   2.0000      -0.437284       -11.8991
  74   2.0000      -0.419582       -11.4174
  75   2.0000      -0.390363       -10.6223
  76   2.0000      -0.343350        -9.3430
  77   0.0000      -0.106652        -2.9021
  78   0.0000       0.015801         0.4300
  79   0.0000       0.040588         1.1045
  80   0.0000       0.041772         1.1367
  81   0.0000       0.053803         1.4641

MULLIKEN ATOMIC CHARGES
-----------------------
   0 C :   -0.248378
   1 C :    0.435007
   2 C :   -0.234415
   3 C :   -0.168328
   4 C :    0.279041
   5 C :    0.230075
   6 F :   -0.164224
   7 F :   -0.163990
   8 C :    0.254273
   9 C :    0.320408
  10 C :   -0.176716
  11 C :    0.310767
  12 C :   -0.211100
  13 C :    0.294118
  14 F :   -0.158737
  15 F :   -0.166610
  16 O :   -0.235938
  17 C :   -0.233613
  18 H :    0.165944
  19 H :    0.160176
  20 H :    0.160507
  21 O :   -0.340174
  22 N :   -0.035777
  23 N :   -0.038582
  24 N :   -0.033737
Sum of atomic charges:   -0.0000000

LOEWDIN ATOMIC CHARGES
----------------------
   0 C :   -0.135300
   1 C :   -0.095585
   2 C :   -0.135342
   3 C :   -0.009884
   4 C :   -0.199030
   5 C :   -0.197891
   6 F :    0.266993
   7 F :    0.267779
   8 C :   -0.190246
   9 C :   -0.187744
  10 C :   -0.035596
  11 C :   -0.034145
  12 C :   -0.138294
  13 C :   -0.470829
  14 F :    0.274385
  15 F :    0.269581
  16 O :    0.280516
  17 C :   -0.272830
  18 H :    0.123052
  19 H :    0.122726
  20 H :    0.121623
  21 O :    0.135938
  22 N :    0.078340
  23 N :    0.077636
  24 N :    0.084147

  Mayer bond orders larger than 0.100000
B(  0-C ,  1-C ) :   0.9537 B(  0-C , 22-N ) :   2.9864 B(  1-C ,  2-C ) :   0.9495
B(  1-C ,  3-C ) :   1.5679 B(  2-C , 23-N ) :   2.9882 B(  3-C ,  4-C ) :   1.0649
B(  3-C ,  5-C ) :   1.0729 B(  4-C ,  6-F ) :   1.0054 B(  4-C ,  8-C ) :   1.7308
B(  5-C ,  7-F ) :   1.0164 B(  5-C ,  9-C ) :   1.7409 B(  8-C , 10-C ) :   1.0732
B(  8-C , 14-F ) :   1.0240 B(  9-C , 10-C ) :   1.0249 B(  9-C , 15-F ) :   0.9909
B( 10-C , 11-C ) :   1.6775 B( 11-C , 12-C ) :   0.9500 B( 11-C , 13-C ) :   0.8891
B( 12-C , 24-N ) :   2.9720 B( 13-C , 16-O ) :   1.2492 B( 13-C , 21-O ) :   2.0163
B( 16-O , 17-C ) :   0.8589 B( 17-C , 18-H ) :   0.9671 B( 17-C , 19-H ) :   0.9654
B( 17-C , 20-H ) :   0.9675

Dispersion correction           -0.011314842
FINAL SINGLE POINT ENERGY     -1211.261092975074

DIPOLE MOMENT
-------------
                                X             Y             Z
Electronic contribution:    -14.83150       0.24538       1.12918
Nuclear contribution   :     17.27505      -0.57629      -1.66998
                        -----------------------------------------
Total Dipole Moment    :      2.44355      -0.33091      -0.54081
                        -----------------------------------------
Magnitude (a.u.)       :      2.52446
Magnitude (Debye)      :      6.41667

Rotational constants in cm-1:     0.017255     0.006226     0.004732
Rotational constants in MHz :   517.290274   186.659943   141.859763

                             ****ORCA TERMINATED NORMALLY****
TOTAL RUN TIME: 0 days 21 hours 22 minutes 6 seconds 577 msec
