                         Program Version 4.2.1 -  RELEASE  -
|  1> # avogadro generated ORCA input file
|  2> # Basic Mode
|  3> #
|  4> ! wB97X-D3 OPT def2-TZVP def2/J CPCM
|  5> %cpcm
|  6>   epsilon 3
|  7> end
|  8> %pal
|  9>  nprocs 4
| 10> end
| 11>
| 12> * xyz 0 1
| 13>    C        0.90987        2.14607        1.20757
| 14>    C        0.16600        0.94740        0.67784
| 15>    H        0.54306        2.40887        2.22069
| 16>    H        0.75543        3.01024        0.52639
| 17>    H        2.00301        1.95916        1.27003
| 18>    C       -2.04729        2.21333        0.83605
| 19>    C       -1.24925        0.98098        0.49850
| 20>    H       -3.12891        2.07430        0.62495
| 21>    H       -1.69095        3.06789        0.22201
| 22>    H       -1.93180        2.46190        1.91090
| 23>    C        0.89159       -0.21219        0.32136
| 24>    C       -1.91307       -0.14420       -0.03730
| 25>    C        0.19726       -1.29487       -0.22899
| 26>    H        1.96576       -0.23541        0.43368
| 27>    C       -1.15297       -1.25611       -0.40020
| 28>    H       -2.98230       -0.13408       -0.20560
| 29>    N        0.70439       -2.50717       -0.75830
| 30>    N       -1.58235       -2.42948       -1.05242
| 31>    C       -0.40227       -3.21290       -1.40810
| 32>    C       -0.47262       -4.70890       -1.10541
| 33>    H       -0.28351       -3.14304       -2.51192
| 34>    C        2.09783       -2.90544       -0.78111
| 35>    H        2.21782       -3.87456       -0.25342
| 36>    H        2.74578       -2.17174       -0.26533
| 37>    H        2.44421       -3.00168       -1.82986
| 38>    C       -2.94231       -2.68066       -1.48052
| 39>    H       -3.29327       -1.84898       -2.12529
| 40>    H       -3.60423       -2.75543       -0.59115
| 41>    H       -3.00454       -3.62555       -2.05912
| 42>    C        0.51408       -5.52452       -1.67875
| 43>    C       -1.57309       -6.73028       -0.29452
| 44>    C        0.46050       -6.91213       -1.58005
| 45>    H        1.31725       -5.08841       -2.25745
| 46>    C       -0.59625       -7.55716       -0.90485
| 47>    H        1.23590       -7.45559       -2.09498
| 48>    C       -1.51098       -5.33057       -0.39120
| 49>    H       -2.40235       -7.14336        0.25833
| 50>    H       -2.29489       -4.75057        0.07322
| 51>    N       -0.69112       -9.00305       -0.88220
| 52>    C        0.45445       -9.87084       -1.13134
| 53>    H        1.41620       -9.33586       -1.21161
| 54>    H        0.29128      -10.45425       -2.06337
| 55>    H        0.57404      -10.57909       -0.28467
| 56>    C       -1.95664       -9.69568       -0.67717
| 57>    H       -1.89819      -10.33573        0.22771
| 58>    H       -2.16682      -10.34227       -1.55725
| 59>    H       -2.82674       -9.02304       -0.58720
| 60> *
| 61>
| 62>
| 63>                          ****END OF INPUT****
 Total Charge           Charge          ....    0
 Multiplicity           Mult            ....    1
 Number of Electrons    NEL             ....  160
Dispersion correction           -0.021034457
FINAL SINGLE POINT ENERGY      -903.367822512810
Dispersion correction            ... done
Dispersion correction           -0.021207244
FINAL SINGLE POINT ENERGY      -903.384867990947
Dispersion correction            ... done
Dispersion correction           -0.021336594
FINAL SINGLE POINT ENERGY      -903.389904334236
Dispersion correction            ... done
FINAL SINGLE POINT ENERGY      -903.392285381447
FINAL SINGLE POINT ENERGY      -903.393808998785
FINAL SINGLE POINT ENERGY      -903.395027036138
FINAL SINGLE POINT ENERGY      -903.396203212568
FINAL SINGLE POINT ENERGY      -903.397384095704
FINAL SINGLE POINT ENERGY      -903.398532041471
FINAL SINGLE POINT ENERGY      -903.399682602174
FINAL SINGLE POINT ENERGY      -903.405022572696
FINAL SINGLE POINT ENERGY      -903.405286696239
FINAL SINGLE POINT ENERGY      -903.405543519354
FINAL SINGLE POINT ENERGY      -903.405733071128
FINAL SINGLE POINT ENERGY      -903.405812636262
FINAL SINGLE POINT ENERGY      -903.405838509050
FINAL SINGLE POINT ENERGY      -903.405852439996
Dispersion correction            ... done
Dispersion correction           -0.021244498
FINAL SINGLE POINT ENERGY      -903.405861001161
Dispersion correction            ... done
Dispersion correction           -0.021245188
FINAL SINGLE POINT ENERGY      -903.405863223052
Dispersion correction            ... done
                    ***********************HURRAY********************

CARTESIAN COORDINATES (ANGSTROEM)
---------------------------------
  C      0.590054    2.062529    1.487712
  C     -0.038999    0.875648    0.807072
  H      0.020499    2.366780    2.370060
  H      0.635724    2.930882    0.824322
  H      1.606109    1.833713    1.809742
  C     -2.129422    2.225742    0.411021
  C     -1.334006    0.952305    0.297168
  H     -3.109815    2.116386   -0.052648
  H     -1.620390    3.063108   -0.074200
  H     -2.284199    2.510453    1.455482
  C      0.695903   -0.313452    0.679340
  C     -1.903309   -0.161336   -0.340673
  C      0.122474   -1.399920    0.059827
  H      1.707317   -0.362339    1.066460
  C     -1.176116   -1.324570   -0.448181
  H     -2.906571   -0.092669   -0.745442
  N      0.605770   -2.692808   -0.157218
  N     -1.511585   -2.571013   -0.983303
  C     -0.245420   -3.272437   -1.195779
  C     -0.362830   -4.769436   -1.116116
  H      0.161147   -3.008230   -2.199655
  C      2.024098   -2.912595   -0.296478
  H      2.216653   -3.982473   -0.382537
  H      2.543674   -2.548214    0.589403
  H      2.439622   -2.407454   -1.181167
  C     -2.476372   -2.655417   -2.051446
  H     -2.141583   -2.131250   -2.958833
  H     -3.424383   -2.225249   -1.729218
  H     -2.650860   -3.703330   -2.297191
  C     -0.006863   -5.575346   -2.185098
  C     -0.954531   -6.761065    0.119917
  C     -0.114654   -6.955486   -2.124689
  H      0.366707   -5.117624   -3.096267
  C     -0.592557   -7.586427   -0.964363
  H      0.175715   -7.540145   -2.986258
  C     -0.837803   -5.389166    0.035151
  H     -1.330344   -7.196315    1.035402
  H     -1.122172   -4.777793    0.884089
  N     -0.701210   -8.950992   -0.885599
  C     -0.376624   -9.767637   -2.031072
  H      0.671776   -9.653571   -2.326743
  H     -0.999808   -9.524396   -2.899139
  H     -0.542585  -10.813045   -1.781197
  C     -1.238732   -9.567213    0.305025
  H     -0.640853   -9.327184    1.189911
  H     -1.229948  -10.647767    0.180873
  H     -2.271696   -9.256832    0.501112

 Multiplicity           Mult            ....    1
 Number of Electrons    NEL             ....  160
 Basis Dimension        Dim             ....  832

ORBITAL ENERGIES
----------------

  NO   OCC          E(Eh)            E(eV)
   0   2.0000     -14.436200      -392.8290
   1   2.0000     -14.427709      -392.5979
   2   2.0000     -14.427681      -392.5972
   3   2.0000     -10.338273      -281.3187
   4   2.0000     -10.317909      -280.7646
   5   2.0000     -10.298158      -280.2271
   6   2.0000     -10.297834      -280.2183
   7   2.0000     -10.295956      -280.1672
   8   2.0000     -10.295416      -280.1525
   9   2.0000     -10.291002      -280.0324
  10   2.0000     -10.290951      -280.0310
  11   2.0000     -10.274980      -279.5964
  12   2.0000     -10.272237      -279.5218
  13   2.0000     -10.268622      -279.4234
  14   2.0000     -10.268082      -279.4087
  15   2.0000     -10.266532      -279.3665
  16   2.0000     -10.265894      -279.3492
  17   2.0000     -10.265431      -279.3366
  18   2.0000     -10.261992      -279.2430
  19   2.0000     -10.261949      -279.2418
  20   2.0000     -10.257821      -279.1295
  21   2.0000     -10.257414      -279.1184
  22   2.0000      -1.113841       -30.3092
  23   2.0000      -1.070490       -29.1295
  24   2.0000      -1.017061       -27.6756
  25   2.0000      -0.973824       -26.4991
  26   2.0000      -0.961529       -26.1645
  27   2.0000      -0.894222       -24.3330
  28   2.0000      -0.869146       -23.6507
  29   2.0000      -0.869131       -23.6502
  30   2.0000      -0.866049       -23.5664
  31   2.0000      -0.839107       -22.8333
  32   2.0000      -0.834343       -22.7036
  33   2.0000      -0.807384       -21.9700
  34   2.0000      -0.800024       -21.7698
  35   2.0000      -0.768239       -20.9049
  36   2.0000      -0.758547       -20.6411
  37   2.0000      -0.719276       -19.5725
  38   2.0000      -0.711423       -19.3588
  39   2.0000      -0.686955       -18.6930
  40   2.0000      -0.671810       -18.2809
  41   2.0000      -0.671131       -18.2624
  42   2.0000      -0.632566       -17.2130
  43   2.0000      -0.610710       -16.6183
  44   2.0000      -0.605775       -16.4840
  45   2.0000      -0.580649       -15.8003
  46   2.0000      -0.577612       -15.7176
  47   2.0000      -0.574367       -15.6293
  48   2.0000      -0.568808       -15.4781
  49   2.0000      -0.547293       -14.8926
  50   2.0000      -0.542364       -14.7585
  51   2.0000      -0.542042       -14.7497
  52   2.0000      -0.531227       -14.4554
  53   2.0000      -0.528642       -14.3851
  54   2.0000      -0.518904       -14.1201
  55   2.0000      -0.516453       -14.0534
  56   2.0000      -0.512621       -13.9491
  57   2.0000      -0.511035       -13.9060
  58   2.0000      -0.502539       -13.6748
  59   2.0000      -0.500967       -13.6320
  60   2.0000      -0.487055       -13.2534
  61   2.0000      -0.485453       -13.2098
  62   2.0000      -0.473587       -12.8870
  63   2.0000      -0.473068       -12.8728
  64   2.0000      -0.472405       -12.8548
  65   2.0000      -0.471807       -12.8385
  66   2.0000      -0.469805       -12.7840
  67   2.0000      -0.461567       -12.5599
  68   2.0000      -0.460395       -12.5280
  69   2.0000      -0.438475       -11.9315
  70   2.0000      -0.431139       -11.7319
  71   2.0000      -0.422087       -11.4856
  72   2.0000      -0.420983       -11.4555
  73   2.0000      -0.381511       -10.3814
  74   2.0000      -0.374474       -10.1900
  75   2.0000      -0.363111        -9.8808
  76   2.0000      -0.340206        -9.2575
  77   2.0000      -0.303522        -8.2593
  78   2.0000      -0.272862        -7.4249
  79   2.0000      -0.251889        -6.8543
  80   0.0000       0.064009         1.7418
  81   0.0000       0.078472         2.1353
  82   0.0000       0.079411         2.1609
  83   0.0000       0.093461         2.5432
  84   0.0000       0.117504         3.1974

MULLIKEN ATOMIC CHARGES
-----------------------
   0 C :   -0.377910
   1 C :    0.065744
   2 H :    0.132026
   3 H :    0.130399
   4 H :    0.127017
   5 C :   -0.385265
   6 C :    0.070602
   7 H :    0.130485
   8 H :    0.131540
   9 H :    0.131262
  10 C :   -0.359806
  11 C :   -0.354943
  12 C :    0.093769
  13 H :    0.135076
  14 C :    0.076140
  15 H :    0.133073
  16 N :   -0.112314
  17 N :   -0.107543
  18 C :    0.102684
  19 C :    0.068314
  20 H :    0.089946
  21 C :   -0.324983
  22 H :    0.155418
  23 H :    0.149418
  24 H :    0.120743
  25 C :   -0.310464
  26 H :    0.117008
  27 H :    0.143822
  28 H :    0.151503
  29 C :   -0.196641
  30 C :   -0.319701
  31 C :   -0.294997
  32 H :    0.132553
  33 C :    0.285838
  34 H :    0.152232
  35 C :   -0.273981
  36 H :    0.151700
  37 H :    0.136626
  38 N :   -0.102131
  39 C :   -0.316305
  40 H :    0.138539
  41 H :    0.138921
  42 H :    0.143866
  43 C :   -0.324426
  44 H :    0.142162
  45 H :    0.144938
  46 H :    0.138044
Sum of atomic charges:   -0.0000000

LOEWDIN ATOMIC CHARGES
----------------------
   0 C :   -0.258590
   1 C :   -0.165447
   2 H :    0.128504
   3 H :    0.127454
   4 H :    0.126228
   5 C :   -0.259351
   6 C :   -0.165625
   7 H :    0.127007
   8 H :    0.127899
   9 H :    0.128102
  10 C :   -0.116766
  11 C :   -0.116608
  12 C :   -0.175630
  13 H :    0.150354
  14 C :   -0.175632
  15 H :    0.150343
  16 N :    0.171309
  17 N :    0.171351
  18 C :   -0.224695
  19 C :   -0.169748
  20 H :    0.138327
  21 C :   -0.299963
  22 H :    0.125523
  23 H :    0.123717
  24 H :    0.110717
  25 C :   -0.298443
  26 H :    0.110475
  27 H :    0.122747
  28 H :    0.125329
  29 C :   -0.121866
  30 C :   -0.140568
  31 C :   -0.148625
  32 H :    0.153245
  33 C :   -0.194634
  34 H :    0.151464
  35 C :   -0.106044
  36 H :    0.151864
  37 H :    0.155822
  38 N :    0.139775
  39 C :   -0.298173
  40 H :    0.117473
  41 H :    0.117010
  42 H :    0.124064
  43 C :   -0.298685
  44 H :    0.118426
  45 H :    0.124154
  46 H :    0.116410

  Mayer bond orders larger than 0.100000
B(  0-C ,  1-C ) :   0.9187 B(  0-C ,  2-H ) :   0.9760 B(  0-C ,  3-H ) :   0.9782
B(  0-C ,  4-H ) :   0.9851 B(  1-C ,  6-C ) :   1.4035 B(  1-C , 10-C ) :   1.4157
B(  5-C ,  6-C ) :   0.9134 B(  5-C ,  7-H ) :   0.9847 B(  5-C ,  8-H ) :   0.9788
B(  5-C ,  9-H ) :   0.9777 B(  6-C , 11-C ) :   1.4040 B( 10-C , 12-C ) :   1.4185
B( 10-C , 13-H ) :   0.9363 B( 11-C , 14-C ) :   1.4127 B( 11-C , 15-H ) :   0.9430
B( 12-C , 14-C ) :   1.2662 B( 12-C , 16-N ) :   1.1315 B( 14-C , 17-N ) :   1.1356
B( 16-N , 18-C ) :   0.9802 B( 16-N , 21-C ) :   0.9497 B( 17-N , 18-C ) :   0.9787
B( 17-N , 25-C ) :   0.9486 B( 18-C , 19-C ) :   0.8921 B( 18-C , 20-H ) :   0.9866
B( 19-C , 29-C ) :   1.3247 B( 19-C , 35-C ) :   1.3309 B( 21-C , 22-H ) :   0.9691
B( 21-C , 23-H ) :   0.9670 B( 21-C , 24-H ) :   0.9629 B( 25-C , 26-H ) :   0.9637
B( 25-C , 27-H ) :   0.9686 B( 25-C , 28-H ) :   0.9702 B( 29-C , 31-C ) :   1.5021
B( 29-C , 32-H ) :   0.9817 B( 30-C , 33-C ) :   1.2435 B( 30-C , 35-C ) :   1.5512
B( 30-C , 36-H ) :   0.9570 B( 31-C , 33-C ) :   1.2707 B( 31-C , 34-H ) :   0.9638
B( 33-C , 38-N ) :   1.2428 B( 35-C , 37-H ) :   0.9951 B( 38-N , 39-C ) :   0.9572
B( 38-N , 43-C ) :   0.9618 B( 39-C , 40-H ) :   0.9656 B( 39-C , 41-H ) :   0.9664
B( 39-C , 42-H ) :   0.9685 B( 43-C , 44-H ) :   0.9641 B( 43-C , 45-H ) :   0.9676
B( 43-C , 46-H ) :   0.9664

Dispersion correction           -0.021244446
FINAL SINGLE POINT ENERGY      -903.405863196965

DIPOLE MOMENT
-------------
                                X             Y             Z
Electronic contribution:      0.20832       0.03586       0.02185
Nuclear contribution   :     -0.12062      -1.61038      -0.58291
                        -----------------------------------------
Total Dipole Moment    :      0.08770      -1.57452      -0.56106
                        -----------------------------------------
Magnitude (a.u.)       :      1.67379
Magnitude (Debye)      :      4.25445

Rotational constants in cm-1:     0.028475     0.003841     0.003699
Rotational constants in MHz :   853.657953   115.150957   110.897381

                             ****ORCA TERMINATED NORMALLY****
TOTAL RUN TIME: 1 days 17 hours 9 minutes 53 seconds 122 msec
